LAMMPS (4 Jan 2019)
# Created by charmm2lammps v1.8.2.6 beta on Thu Mar  3 20:56:57 EST 2016

units           real
neigh_modify    delay 2 every 1
#newton          off

boundary        p p p

atom_style      full
bond_style      harmonic
angle_style     charmm
dihedral_style  charmm
improper_style  harmonic

pair_style      lj/charmm/coul/charmm 8 12
#pair_style      lj/charmmfsw/coul/charmmfsh 8 12
pair_modify     mix arithmetic

fix             cmap all cmap charmm22.cmap
Reading potential file charmm22.cmap with DATE: 2016-09-26
fix_modify      cmap energy yes

read_data       gagg.data fix cmap crossterm CMAP
  orthogonal box = (-34.4147 -36.1348 -39.3491) to (45.5853 43.8652 40.6509)
  2 by 2 by 2 MPI processor grid
  reading atoms ...
  34 atoms
  scanning bonds ...
  4 = max bonds/atom
  scanning angles ...
  6 = max angles/atom
  scanning dihedrals ...
  12 = max dihedrals/atom
  scanning impropers ...
  1 = max impropers/atom
  reading bonds ...
  33 bonds
  reading angles ...
  57 angles
  reading dihedrals ...
  75 dihedrals
  reading impropers ...
  7 impropers
  4 = max # of 1-2 neighbors
  7 = max # of 1-3 neighbors
  13 = max # of 1-4 neighbors
  16 = max # of special neighbors

special_bonds   charmm
fix             1 all nve

#fix             1 all nvt temp 300 300 100.0
#fix             2 all shake 1e-9 500 0 m 1.0

velocity        all create 0.0 12345678 dist uniform

thermo          1000
thermo_style    custom step ecoul evdwl ebond eangle edihed f_cmap eimp
timestep        2.0

run             100000
Neighbor list info ...
  update every 1 steps, delay 2 steps, check yes
  max neighbors/atom: 2000, page size: 100000
  master list distance cutoff = 14
  ghost atom cutoff = 14
  binsize = 7, bins = 12 12 12
  1 neighbor lists, perpetual/occasional/extra = 1 0 0
  (1) pair lj/charmm/coul/charmm, perpetual
      attributes: half, newton on
      pair build: half/bin/newton
      stencil: half/bin/3d/newton
      bin: standard
Per MPI rank memory allocation (min/avg/max) = 14.94 | 15.25 | 16.19 Mbytes
Step E_coul E_vdwl E_bond E_angle E_dihed f_cmap E_impro 
       0    26.542777  -0.93822087    1.2470497    4.8441789    4.5432816    -1.473352   0.10453023 
    1000    28.673005  -0.47724367   0.80029132     3.151679    4.4684446   -2.3928648   0.18604953 
    2000     27.67955    -1.170342   0.72018905    4.0400131    4.4713764   -2.5490207   0.21834436 
    3000    29.256656  -0.35856055   0.73303546    3.7411606    4.4710568   -2.8939692   0.37728884 
    4000    30.097549   -1.1353905   0.79007053    3.0688444    4.4091469   -2.3383587   0.20743631 
    5000    28.357525   -1.0723742    0.9180297    3.6579424    4.8792663   -2.3185572  0.088366962 
    6000    29.214175  -0.95299249   0.81926013    3.6805428    4.6742897   -2.9343578   0.26697819 
    7000    27.018613  -0.52423465   0.72502742    3.8840144    4.7780959   -2.3916017   0.24952563 
    8000    29.682745   -1.0940873   0.76114272    3.1088747    4.9356455   -2.5661707   0.14113416 
    9000    27.812399  -0.77932184   0.79893676    4.2295201    4.1601706   -2.0079545  0.092192819 
   10000    27.000406  -0.75706058    1.1014773    4.5427224    5.2831969   -3.5012994   0.12133082 
   11000    28.823475   -1.5624115   0.91656632    3.7524772    4.6236664   -2.3638599   0.15683347 
   12000    25.910586  -0.31994489    0.8791516    4.4544718    5.5663171   -3.6434208    0.4105986 
   13000    29.878198   -1.4641199   0.72260478    3.5308614    4.7212514   -2.5378621   0.07963037 
   14000    26.267654  -0.62101842   0.91081868    4.2112866    5.1703229   -3.2909332   0.34796441 
   15000    29.437884  -0.92835393   0.90036815    3.9946808    4.5813259   -2.9126654   0.25854673 
   16000    26.521759  -0.45792929   0.70645109    3.9268143    5.2359493    -2.708408   0.34927767 
   17000    27.485652  -0.54102609    0.9027877    3.6910839     4.924796   -2.6275363   0.14565803 
   18000    28.368503  -0.58154912   0.75041935    4.1163064    5.0678629     -3.42974   0.35800781 
   19000    28.492842   -1.3785943   0.86021618    3.4310985    4.5405293   -3.0202007   0.31550803 
   20000    29.220734   -1.0573716    1.1298929    3.6867608     4.748517   -3.1574295   0.15631216 
   21000    28.049233   -1.1709048   0.80795172    3.6902201    4.5719756   -2.8520016   0.27678506 
   22000     29.20437   -1.4833835   0.91707885    3.6416777    4.6934613   -2.4174743   0.13192809 
   23000     27.05312   -1.1528319     1.106127    4.6080236    4.4416102   -2.6185456   0.19256673 
   24000     27.76236  -0.66125624    0.6837443    4.4091433    4.4867612   -2.1384255   0.10309479 
   25000    28.174932  -0.94851837   0.85427144    3.9245442    4.5795835   -2.5015927   0.30149548 
   26000    28.258575     -1.05116   0.84578786    3.6524428     4.281173   -2.5175187   0.17997226 
   27000    28.401171  -0.96459325   0.70120247    3.8515776    4.4536963   -2.2321543   0.12765516 
   28000    29.253253   -1.2174018    1.0359823    3.0820845    4.4078995   -2.3832346  0.064205836 
   29000    28.825191   -1.4519402   0.73837841    3.8132534    4.5719867   -2.2723144   0.23688808 
   30000    28.422201  -0.66603568   0.85846997    4.5693671    4.4851419    -2.955522   0.22871271 
   31000    28.404262  -0.89225927   0.94870252    4.6976331    4.3800482   -2.2968703   0.25390122 
   32000    29.162672   -1.7384308   0.79135086    4.0953067    4.8343493    -2.327823   0.13274355 
   33000     28.08941  -0.94767654   0.97838183    3.8714798    5.3320455   -2.5999948   0.16105977 
   34000    27.591497   -1.0444069    1.1252792     4.769975    4.6929409   -2.5267639   0.19354945 
   35000    28.479674   -1.4890639   0.96127076    4.1280025    4.4197024   -2.3825301   0.17257293 
   36000       29.259   -1.7442855   0.96032496    4.1066609    4.4517861   -2.1036849  0.041908874 
   37000    27.647256  -0.71140448    0.6781092    4.5036367    4.9858925   -2.7619468   0.12973778 
   38000    27.877755  -0.30970818   0.83765849    3.6076784    4.5804728   -2.4250965    0.0875906 
   39000    27.729394  -0.49992952   0.81301257    3.5519824    5.0472855   -2.6006496   0.14500083 
   40000    28.923063  -0.79294963   0.74495902    3.1105605    4.5462546   -2.3469655   0.06274036 
   41000    26.026011  -0.76210741    1.1735982    4.2845955    5.6594928   -2.3412426   0.24296927 
   42000    26.586279  -0.93564901    1.1445605    4.9398696    4.6598431    -2.149415   0.16200441 
   43000    27.833088   -1.1894541   0.86627125    4.3053886    4.5687219   -2.6457103   0.22662632 
   44000     28.70829  -0.97310556   0.83467935    3.7143981     4.819299   -2.4716246   0.14400365 
   45000    28.239856  -0.89918456    1.0466092     3.862428    4.5831273   -2.3050876  0.068060386 
   46000    27.502089  -0.57579422   0.59768918    4.7898452    4.8903206   -2.7187001    0.3945981 
   47000    27.996322   -1.4857787   0.91580772     4.544486    4.6506341   -2.5862744  0.096538701 
   48000     28.44837   -1.4359003    1.0556743     3.967639    4.7677082   -2.1401717   0.19865852 
   49000    26.477312   -1.1899897    1.0282546    4.6901087    5.0641326   -2.2283215  0.052619854 
   50000    28.440658  -0.78707508   0.88294769    3.5513378    4.2837306   -2.1807619   0.13621936 
   51000    29.035574  -0.80783145   0.77454181    3.5160548    4.2139863   -1.9529606   0.14965508 
   52000    27.372244  -0.50636446    1.1384632    4.3887518    4.7054041   -2.4805911   0.11901359 
   53000    28.661096  -0.83367873   0.52642094    3.9329416    4.5583528   -2.5328554   0.17012271 
   54000    27.453799   -1.0803747   0.71333407    4.5957361    4.7563021   -2.4117856  0.097442606 
   55000    26.925203  -0.43248329    0.9575254    4.2744714    5.7502376   -2.4034963  0.093056155 
   56000    28.003586  -0.81875249   0.90973108    4.3716709    4.3059798   -2.2204635  0.090097691 
   57000     28.46182   -1.0204199   0.82677128    4.0182752    4.5771523   -2.4037057   0.21850166 
   58000    26.950964  -0.64124896   0.97294886    4.0557338     5.166306   -2.3234474   0.18308741 
   59000    26.854772  -0.82307757   0.77125431    4.3457644    5.4116006   -2.4383937    0.1947962 
   60000    28.463347  -0.97887905    1.0635938    3.7856638    4.9230789   -2.1564702   0.11923207 
   61000    28.771506  -0.61344604   0.78562298    3.4607802    4.5645464   -2.4387429   0.20214407 
   62000     28.24325   -1.1100713   0.78761834    3.8412765     4.917855   -2.2594206   0.11180814 
   63000    28.185154  -0.62948836   0.72152658     3.612545    4.6411811   -2.2830125  0.097901245 
   64000    29.252641   -1.4195768    1.0052591    3.8632109    4.4312995    -2.415384   0.27358406 
   65000     27.93346  -0.97659048     1.093077    3.7305636    4.6597292   -2.2311902  0.095393608 
   66000    28.309509   -1.1979221     1.029215    3.5841858    4.6463088   -1.9423559   0.17157945 
   67000     29.31948   -1.6682632    1.0282429    4.0820317    4.5557615   -2.5204851    0.1720547 
   68000    27.714449  -0.64108957    1.1492168    3.9098102    4.4231689   -2.2738535  0.087318842 
   69000    27.704809   -1.2742214    0.8880268    4.4054234    4.5412875   -2.4372515   0.15247626 
   70000    29.112787   -1.0746754   0.75845852    3.3170381    4.3485104   -1.7698306   0.20431312 
   71000    27.321783    -1.097792   0.95892679    4.2089083    4.7013267   -2.2950783   0.11624628 
   72000    27.415477  -0.84860075   0.77972272    4.2737187    4.8186064   -2.3830141  0.028653804 
   73000     27.66285    -1.213092    1.0887495    4.6546249    4.2981223   -2.0217433   0.23845415 
   74000    28.103566   -1.3788846   0.69110575    4.1734755    4.6227137   -2.4716222   0.16470658 
   75000    28.422882  -0.87168542   0.78976639    3.4402786    4.6472376   -2.4101325   0.10587807 
   76000    28.356432   -1.2976665   0.93658583    4.5153617    4.3524366   -2.6139086   0.18780126 
   77000     29.02615   -1.3449991   0.78134442    4.3217344    4.4548637   -2.3638487    0.1845591 
   78000    28.554089  -0.40825725   0.87703734     4.016544    4.9470743     -2.63619   0.12837744 
   79000    27.960161  -0.97361089    1.0724943    4.4463312    4.3452903   -2.3870454   0.17742572 
   80000    27.846945   -1.3023348   0.99430286    4.1650617    4.5843842   -2.3071115   0.17487101 
   81000    28.863307  -0.93355079   0.50148912    3.1377049    5.1797751   -2.3137313   0.11694915 
   82000    28.145695   -1.2646039   0.76356767    4.2857169    4.5506084   -2.3818066   0.19457051 
   83000    28.876551   -1.4087827   0.83044663    4.4426199      4.57013   -2.4396313   0.17316061 
   84000     29.01853  -0.87493257   0.85894495    3.4951847    4.5443066   -2.3412706  0.067748264 
   85000    28.312694   -1.3231728    0.7228133    4.0103619    4.5124496   -2.9180784   0.15357287 
   86000    28.355137  -0.96988417     1.101073    3.4574161     5.340736   -2.4198274   0.13415608 
   87000    27.632662   -1.2260528    1.2178947    4.7894509    4.3768657   -2.3127581   0.24828299 
   88000    28.800898   -1.0087438    1.0660995    4.2218655    4.4774245   -2.3757345   0.13864938 
   89000    26.724416  -0.45760228   0.70834136    4.3377095    4.8116171   -2.6575796   0.15146853 
   90000    28.189057  -0.59211306   0.86248952    3.8625917    4.8938521   -2.9497732   0.30612451 
   91000    26.918185   -1.1668159   0.75567049    4.7325188    5.0423776   -3.0491077   0.20721533 
   92000    29.168842  -0.57012609   0.75735438    3.6094604    4.7179162   -2.8178059   0.25618159 
   93000    27.937785   -1.1168324    1.1600612     4.342195    4.4057463   -2.3508979   0.16846845 
   94000    28.418546   -1.1101047    0.6351958    3.9524584    4.3670356   -2.9067866    0.1415095 
   95000    29.069574   -1.1185513   0.97116608    3.9959142    4.6604313   -3.0703388    0.1914019 
   96000    28.132145   -1.2943804    1.1084948    3.9485541    4.6231952   -2.8039619   0.14600179 
   97000    28.264605  -0.63555788   0.99575442    4.0439157    4.4040412   -3.0199696   0.43477666 
   98000    27.379737   -1.1806813   0.85947643    4.4441077    4.5133268   -2.5226651   0.10353767 
   99000    27.532951  -0.54002997   0.93321067    4.3288415    4.9767326   -3.1581297   0.24158606 
  100000    28.196495   -1.1444662   0.89650351    3.8858675    4.6970664    -2.830932   0.15678643 
Loop time of 2.21127 on 8 procs for 100000 steps with 34 atoms

Performance: 7814.519 ns/day, 0.003 hours/ns, 45222.913 timesteps/s
100.0% CPU use with 8 MPI tasks x no OpenMP threads

MPI task timing breakdown:
Section |  min time  |  avg time  |  max time  |%varavg| %total
---------------------------------------------------------------
Pair    | 0.011014   | 0.10808    | 0.45879    |  41.9 |  4.89
Bond    | 0.0082586  | 0.16392    | 0.6466     |  59.3 |  7.41
Neigh   | 0.0062647  | 0.006857   | 0.0073817  |   0.4 |  0.31
Comm    | 0.55361    | 1.4747     | 1.8394     |  32.3 | 66.69
Output  | 0.003406   | 0.0036618  | 0.0041085  |   0.4 |  0.17
Modify  | 0.019563   | 0.053281   | 0.13673    |  20.3 |  2.41
Other   |            | 0.4007     |            |       | 18.12

Nlocal:    4.25 ave 12 max 1 min
Histogram: 4 2 0 0 0 0 0 0 0 2
Nghost:    29.75 ave 33 max 22 min
Histogram: 2 0 0 0 0 0 0 0 2 4
Neighs:    49.5 ave 222 max 11 min
Histogram: 5 1 1 0 0 0 0 0 0 1

Total # of neighbors = 396
Ave neighs/atom = 11.6471
Ave special neighs/atom = 9.52941
Neighbor list builds = 275
Dangerous builds = 0
Total wall time: 0:00:02
