LAMMPS (29 Aug 2024 - Development - f820c928a)
# Created by charmm2lammps v1.8.2.6 beta on Thu Mar  3 20:56:57 EST 2016

units           real
neigh_modify    delay 2 every 1
#newton          off

boundary        p p p

atom_style      full
bond_style      harmonic
angle_style     charmm
dihedral_style  charmm
improper_style  harmonic

pair_style      lj/charmm/coul/charmm 8 12
#pair_style      lj/charmmfsw/coul/charmmfsh 8 12
pair_modify     mix arithmetic

fix             cmap all cmap charmm22.cmap
Reading CMAP parameters from: charmm22.cmap
Reading cmap grid potential file charmm22.cmap with DATE: 2016-09-26
fix_modify      cmap energy yes

read_data       gagg.data fix cmap crossterm CMAP
Reading data file ...
  orthogonal box = (-34.414709 -36.134827 -39.349142) to (45.585291 43.865173 40.650858)
  2 by 2 by 2 MPI processor grid
  reading atoms ...
  34 atoms
  scanning bonds ...
  4 = max bonds/atom
  scanning angles ...
  6 = max angles/atom
  scanning dihedrals ...
  12 = max dihedrals/atom
  scanning impropers ...
  1 = max impropers/atom
  orthogonal box = (-34.414709 -36.134827 -39.349142) to (45.585291 43.865173 40.650858)
  2 by 2 by 2 MPI processor grid
  reading bonds ...
  33 bonds
  reading angles ...
  57 angles
  reading dihedrals ...
  75 dihedrals
  reading impropers ...
  7 impropers
Finding 1-2 1-3 1-4 neighbors ...
  special bond factors lj:    0        0        0       
  special bond factors coul:  0        0        0       
     4 = max # of 1-2 neighbors
     7 = max # of 1-3 neighbors
    13 = max # of 1-4 neighbors
    16 = max # of special neighbors
  special bonds CPU = 0.000 seconds
  read_data CPU = 0.013 seconds

special_bonds   charmm
fix             1 all nve

#fix             1 all nvt temp 300 300 100.0
#fix             2 all shake 1e-9 500 0 m 1.0

velocity        all create 0.0 12345678 dist uniform

thermo          1000
thermo_style    custom step ecoul evdwl ebond eangle edihed f_cmap eimp
timestep        2.0

run             100000

CITE-CITE-CITE-CITE-CITE-CITE-CITE-CITE-CITE-CITE-CITE-CITE-CITE

Your simulation uses code contributions which should be cited:

- Type Label Framework: https://doi.org/10.1021/acs.jpcb.3c08419

@Article{Gissinger24,
 author = {Jacob R. Gissinger, Ilia Nikiforov, Yaser Afshar, Brendon Waters, Moon-ki Choi, Daniel S. Karls, Alexander Stukowski, Wonpil Im, Hendrik Heinz, Axel Kohlmeyer, and Ellad B. Tadmor},
 title = {Type Label Framework for Bonded Force Fields in LAMMPS},
 journal = {J. Phys. Chem. B},
 year =    2024,
 volume =  128,
 number =  13,
 pages =   {3282--3297}
}

CITE-CITE-CITE-CITE-CITE-CITE-CITE-CITE-CITE-CITE-CITE-CITE-CITE

Generated 78 of 78 mixed pair_coeff terms from arithmetic mixing rule
Neighbor list info ...
  update: every = 1 steps, delay = 2 steps, check = yes
  max neighbors/atom: 2000, page size: 100000
  master list distance cutoff = 14
  ghost atom cutoff = 14
  binsize = 7, bins = 12 12 12
  1 neighbor lists, perpetual/occasional/extra = 1 0 0
  (1) pair lj/charmm/coul/charmm, perpetual
      attributes: half, newton on
      pair build: half/bin/newton
      stencil: half/bin/3d
      bin: standard
Per MPI rank memory allocation (min/avg/max) = 15.32 | 15.54 | 16.19 Mbytes
   Step         E_coul         E_vdwl         E_bond        E_angle        E_dihed         f_cmap        E_impro    
         0   26.542777     -0.93822087     1.2470497      4.8441789      4.5432816     -1.473352       0.10453023   
      1000   28.673005     -0.47724367     0.80029132     3.151679       4.4684446     -2.3928648      0.18604953   
      2000   27.67955      -1.170342       0.72018905     4.0400131      4.4713764     -2.5490207      0.21834436   
      3000   29.256656     -0.35856055     0.73303546     3.7411606      4.4710568     -2.8939692      0.37728884   
      4000   30.097549     -1.1353905      0.79007053     3.0688444      4.4091469     -2.3383587      0.20743631   
      5000   28.357525     -1.0723742      0.9180297      3.6579424      4.8792663     -2.3185572      0.088366962  
      6000   29.214175     -0.95299249     0.81926013     3.6805428      4.6742897     -2.9343578      0.26697819   
      7000   27.018613     -0.52423465     0.72502743     3.8840144      4.7780959     -2.3916017      0.24952564   
      8000   29.682725     -1.0940833      0.76114173     3.1088794      4.9356567     -2.5661751      0.14113353   
      9000   27.815667     -0.78023985     0.79861287     4.2285551      4.1591216     -2.0077212      0.092065738  
     10000   26.964003     -0.75584263     1.107892       4.5477312      5.3267465     -3.5111338      0.1208564    
     11000   28.577966     -1.7302556      0.99510058     3.9439411      4.7187879     -2.2729012      0.15722331   
     12000   26.131081     -0.35248473     0.79273527     4.3875181      5.4457189     -3.5856608      0.40946995   
     13000   28.330662     -0.55469227     0.90868482     3.5511661      4.4596045     -2.7342841      0.16380081   
     14000   27.647314     -0.63053529     0.69052925     4.3788149      4.9860579     -2.896327       0.16602176   
     15000   27.561357     -0.68741869     0.90884248     3.5093271      4.884647      -3.5165793      0.3803301    
     16000   27.551375     -0.67032676     0.77411592     4.5424605      5.18878       -2.9048926      0.18182587   
     17000   26.55733      -0.081714405    0.70670291     4.3426678      4.8955807     -3.0843507      0.1110633    
     18000   28.840442     -0.77728264     1.0895864      3.6214523      4.7604917     -2.899783       0.32431811   
     19000   27.89055      -0.47175423     0.81105132     3.5173136      4.7353799     -2.2913649      0.053202292  
     20000   28.679748     -1.604425       0.75889976     3.814566       4.7402447     -2.4251384      0.051650604  
     21000   29.052261     -1.1434467      0.634363       3.6797185      4.7197866     -2.9459586      0.21712886   
     22000   26.714532     -0.61044175     0.80726743     4.3092671      4.3933232     -2.7097297      0.27078158   
     23000   28.40104      -1.2497409      0.82939746     4.2368819      4.7010956     -2.7106642      0.19982476   
     24000   28.630707     -1.4568195      0.85969957     4.7425841      4.375923      -2.7882236      0.065846542  
     25000   27.676363     -0.82204255     0.98241431     4.3004902      4.6062272     -2.4308332      0.17606855   
     26000   26.526915     -0.35481405     0.87637448     3.9744442      4.7484482     -3.269628       0.19132206   
     27000   28.622741     -1.0209684      0.76411159     4.1516178      4.2818363     -2.1566627      0.06735692   
     28000   28.358309     -0.79351482     0.94759423     3.6067183      4.8014109     -2.5298981      0.10046309   
     29000   27.651851     -0.43203753     0.74881047     4.0403245      4.6128272     -2.436033       0.10206655   
     30000   27.055361     -0.34888126     0.7504678      3.7739984      4.6144164     -2.2983102      0.085352745  
     31000   28.006701     -1.0959331      1.0812101      3.9381369      4.4832805     -2.3482047      0.12066732   
     32000   28.365226     -0.93171512     0.72523297     4.1915568      4.3984289     -2.8073058      0.25520917   
     33000   26.486728     -0.4444856      0.79293561     4.5762988      4.7653666     -2.7653717      0.20154315   
     34000   27.3165       -0.90764805     1.0632799      4.6358338      5.1148945     -2.3561356      0.10642381   
     35000   27.697688     -1.2574058      0.69890701     4.7865519      4.9764416     -2.2390648      0.15732751   
     36000   27.238273     -1.1582737      1.1849436      5.0122364      5.2263258     -2.6142123      0.16731961   
     37000   25.76353      -0.25864583     0.77824224     4.3019834      5.4025682     -2.9300413      0.32404899   
     38000   28.83317      -1.5289614      1.2413067      4.0748103      4.7897031     -2.9979537      0.33961161   
     39000   28.34817      -1.1354918      1.1395486      3.5227025      5.1933385     -2.6262864      0.26236543   
     40000   28.044697     -1.1393615      0.94311782     3.9449346      4.0551133     -1.7227494      0.13996351   
     41000   29.137233     -0.75582559     0.97617514     3.8561806      4.8528007     -3.1027546      0.24239709   
     42000   27.685509     -0.5040673      0.69840952     3.812829       4.6563971     -2.9641647      0.25030565   
     43000   29.619429     -1.0972141      0.84583801     3.3562259      4.4748844     -2.7972724      0.16855755   
     44000   28.561267     -0.95316368     0.72899326     3.6430579      4.34275       -2.184118       0.1482355    
     45000   27.752453     -1.2156007      1.0866523      4.2764875      4.6641387     -2.4575517      0.092408884  
     46000   28.496011     -0.89560285     0.98569812     3.8126178      4.5573123     -2.306554       0.1209085    
     47000   28.746365     -1.3472551      0.60204241     4.2369575      4.6551603     -2.4340527      0.1285459    
     48000   28.053508     -1.0171572      0.99698381     3.6876963      4.9336832     -2.864144       0.28763996   
     49000   27.800825     -0.64728572     0.85605075     4.2385473      4.4476386     -2.5063075      0.25194844   
     50000   27.540249     -0.65282479     0.73032185     3.5524531      5.0951119     -3.2079827      0.25090313   
     51000   27.656658     -0.63655919     1.2501556      4.4566611      4.7005986     -2.8906463      0.37733805   
     52000   27.096336     -0.71631336     0.76466463     4.2769619      4.7083493     -2.7047149      0.18635251   
     53000   29.58231      -0.83401979     0.7734926      3.071951       4.8390932     -3.1924761      0.36661082   
     54000   28.874522     -1.3147029      0.83689362     3.4683325      4.305557      -2.3192261      0.051103995  
     55000   27.723755     -1.1371189      0.92762537     4.1037295      4.7349253     -2.3050729      0.084956799  
     56000   27.716844     -1.2510866      0.99839717     4.0155826      4.7105213     -2.6305406      0.12914592   
     57000   28.477324     -1.2716794      1.0183364      4.2549847      5.1856503     -2.857692       0.19119961   
     58000   27.804357     -1.1078794      0.82761766     4.155219       4.4837401     -3.140192       0.30661826   
     59000   27.190887     -0.73149633     1.0659414      4.5790553      4.6357574     -2.3605893      0.16417393   
     60000   27.590993     -1.3436598      1.3271036      4.4146428      4.7378471     -2.7567347      0.11684433   
     61000   29.234144     -1.3621784      0.82832732     3.641414       4.3152855     -2.107639       0.14826966   
     62000   27.339882     -1.0806158      1.266425       4.3992501      5.458897      -2.7449466      0.20964612   
     63000   26.263128     -0.91283566     0.82637349     5.1187053      5.0485651     -2.4919004      0.13704039   
     64000   27.662532     -0.91682509     0.8682743      4.7047434      4.832249      -3.1890964      0.45803052   
     65000   27.442199     -0.79809533     0.94563642     4.1103961      4.5550688     -2.43097        0.051453491  
     66000   28.458305     -1.1493779      1.0985894      3.7800004      4.5817594     -2.3358387      0.092822886  
     67000   28.070172     -1.3204579      0.93533395     4.2443645      4.8832613     -2.4170216      0.18274162   
     68000   28.162314     -1.2134564      1.0790066      4.0689732      4.6770454     -2.3334123      0.17989279   
     69000   27.876222     -0.74628399     0.56876007     4.494597       4.5327212     -2.6470955      0.1888153    
     70000   25.918737     -0.46247553     1.3360495      4.98651        4.8173877     -2.619708       0.19779232   
     71000   29.797801     -0.79965986     0.74900145     3.4395291      4.3750537     -2.878187       0.16029696   
     72000   26.955846     -1.2681001      0.96789006     4.9025637      4.5416842     -3.1014856      0.29325807   
     73000   28.513193     -0.91057791     0.86864565     3.8816681      4.4988624     -2.4274106      0.19324676   
     74000   27.118381     -1.0691552      0.84707759     4.5023117      4.8110881     -3.109          0.23471264   
     75000   28.754353     -1.4407269      1.3656581      4.0857632      4.985614      -2.8912227      0.11960117   
     76000   27.954033     -0.85787833     0.68076079     4.2246233      4.4486777     -2.9966041      0.2190581    
     77000   28.250187     -0.78338394     1.1983266      3.9761666      4.5669031     -2.4027472      0.15432743   
     78000   28.269969     -0.77457454     0.81722548     3.8576259      4.4694665     -3.1181691      0.14294954   
     79000   29.196201     -1.4817271      0.81325442     3.7128382      4.3499289     -2.2409245      0.036141186  
     80000   27.915797     -1.4220452      1.1691675      4.3490983      4.2224583     -2.1513159      0.11642015   
     81000   28.832691     -1.3596284      0.76991534     4.0695292      4.4285852     -2.2610498      0.17450616   
     82000   28.347442     -0.91636345     1.1208072      4.3068893      4.5805729     -2.9536857      0.31720843   
     83000   26.328028     -1.1868121      1.1314731      5.1884887      4.8519274     -3.2676097      0.25839371   
     84000   28.833206     -0.66820886     0.65524927     4.1386511      4.6138123     -2.8163777      0.27595187   
     85000   27.440149     -1.4263499      0.95127677     4.9696678      4.7838576     -2.3406941      0.10102398   
     86000   28.223903     -1.1290927      0.74136207     4.7699826      4.2620651     -2.259116       0.19465      
     87000   25.63549      -0.13764843     0.89927697     4.7996383      4.757818      -2.39286        0.25823372   
     88000   26.961975     -0.46245663     1.1272483      4.6544924      4.4261553     -2.2286882      0.083736407  
     89000   29.658031     -1.2682182      0.74691984     3.4629182      4.2381521     -2.1144908      0.046233348  
     90000   28.602855     -1.0146986      0.99312527     4.1318203      4.3128668     -2.2719818      0.046101056  
     91000   27.564747     -0.47278196     0.91109269     4.0021054      4.5433351     -2.410166       0.077357187  
     92000   27.162016     -0.67569802     1.2080396      4.5131073      4.7566443     -2.4125867      0.11126822   
     93000   28.967256     -1.3146064      0.61408686     3.7739684      5.11669       -2.2157365      0.120833     
     94000   28.3235       -0.63778573     0.87870882     3.6283222      4.75157       -2.4244959      0.11254794   
     95000   27.900554     -0.79793471     0.893903       4.1512481      4.2617218     -2.2826478      0.13415855   
     96000   28.417528     -1.2914502      0.96859679     4.099416       4.3792955     -2.4632655      0.10762015   
     97000   28.491477     -1.2305232      1.1490474      3.5966298      4.4653128     -2.3722555      0.13872481   
     98000   27.711457     -0.94580518     0.87838266     4.1535956      4.3064291     -2.2433722      0.20774715   
     99000   27.794128     -0.88867669     1.2697594      4.18597        4.5801784     -2.7435442      0.26415518   
    100000   28.580138     -0.88325264     0.71890662     3.8401225      4.2572584     -2.3216191      0.072076969  
Loop time of 2.69102 on 8 procs for 100000 steps with 34 atoms

Performance: 6421.346 ns/day, 0.004 hours/ns, 37160.569 timesteps/s, 1.263 Matom-step/s
99.8% CPU use with 8 MPI tasks x no OpenMP threads

MPI task timing breakdown:
Section |  min time  |  avg time  |  max time  |%varavg| %total
---------------------------------------------------------------
Pair    | 0.010148   | 0.11875    | 0.54008    |  47.8 |  4.41
Bond    | 0.011884   | 0.1945     | 0.76249    |  63.3 |  7.23
Neigh   | 0.0082099  | 0.0084056  | 0.0085235  |   0.1 |  0.31
Comm    | 0.93489    | 1.8559     | 2.2611     |  31.9 | 68.97
Output  | 0.0037525  | 0.0041663  | 0.0049663  |   0.6 |  0.15
Modify  | 0.027295   | 0.070429   | 0.19071    |  23.5 |  2.62
Other   |            | 0.4389     |            |       | 16.31

Nlocal:           4.25 ave          14 max           0 min
Histogram: 4 1 1 0 0 0 0 0 1 1
Nghost:          29.75 ave          34 max          20 min
Histogram: 1 1 0 0 0 0 0 1 1 4
Neighs:         49.375 ave         258 max           0 min
Histogram: 5 1 1 0 0 0 0 0 0 1

Total # of neighbors = 395
Ave neighs/atom = 11.617647
Ave special neighs/atom = 9.5294118
Neighbor list builds = 254
Dangerous builds = 0
Total wall time: 0:00:02
