LAMMPS (17 Feb 2022)
# Created by charmm2lammps v1.8.2.6 beta on Thu Mar  3 20:56:57 EST 2016

units           real
neigh_modify    delay 2 every 1
#newton          off

boundary        p p p

atom_style      full
bond_style      harmonic
angle_style     charmm
dihedral_style  charmm
improper_style  harmonic

pair_style      lj/charmm/coul/charmm 8 12
#pair_style      lj/charmmfsw/coul/charmmfsh 8 12
pair_modify     mix arithmetic

fix             cmap all cmap charmm22.cmap
Reading cmap grid potential file charmm22.cmap with DATE: 2016-09-26
fix_modify      cmap energy yes

read_data       gagg.data fix cmap crossterm CMAP
Reading data file ...
  orthogonal box = (-34.414709 -36.134827 -39.349142) to (45.585291 43.865173 40.650858)
  2 by 2 by 2 MPI processor grid
  reading atoms ...
  34 atoms
  scanning bonds ...
  4 = max bonds/atom
  scanning angles ...
  6 = max angles/atom
  scanning dihedrals ...
  12 = max dihedrals/atom
  scanning impropers ...
  1 = max impropers/atom
  reading bonds ...
  33 bonds
  reading angles ...
  57 angles
  reading dihedrals ...
  75 dihedrals
  reading impropers ...
  7 impropers
Finding 1-2 1-3 1-4 neighbors ...
  special bond factors lj:    0        0        0       
  special bond factors coul:  0        0        0       
     4 = max # of 1-2 neighbors
     7 = max # of 1-3 neighbors
    13 = max # of 1-4 neighbors
    16 = max # of special neighbors
  special bonds CPU = 0.209 seconds
  read_data CPU = 0.877 seconds

special_bonds   charmm
fix             1 all nve

#fix             1 all nvt temp 300 300 100.0
#fix             2 all shake 1e-9 500 0 m 1.0

velocity        all create 0.0 12345678 dist uniform

thermo          1000
thermo_style    custom step ecoul evdwl ebond eangle edihed f_cmap eimp
timestep        2.0

run             100000
  generated 78 of 78 mixed pair_coeff terms from arithmetic mixing rule
Neighbor list info ...
  update every 1 steps, delay 2 steps, check yes
  max neighbors/atom: 2000, page size: 100000
  master list distance cutoff = 14
  ghost atom cutoff = 14
  binsize = 7, bins = 12 12 12
  1 neighbor lists, perpetual/occasional/extra = 1 0 0
  (1) pair lj/charmm/coul/charmm, perpetual
      attributes: half, newton on
      pair build: half/bin/newton
      stencil: half/bin/3d
      bin: standard
Per MPI rank memory allocation (min/avg/max) = 15.32 | 15.54 | 16.19 Mbytes
Step E_coul E_vdwl E_bond E_angle E_dihed f_cmap E_impro 
       0    26.542777  -0.93822087    1.2470497    4.8441789    4.5432816    -1.473352   0.10453023 
    1000    28.673005  -0.47724367   0.80029132     3.151679    4.4684446   -2.3928648   0.18604953 
    2000     27.67955    -1.170342   0.72018905    4.0400131    4.4713764   -2.5490207   0.21834436 
    3000    29.256656  -0.35856055   0.73303546    3.7411606    4.4710568   -2.8939692   0.37728884 
    4000    30.097549   -1.1353905   0.79007053    3.0688444    4.4091469   -2.3383587   0.20743631 
    5000    28.357525   -1.0723742    0.9180297    3.6579424    4.8792663   -2.3185572  0.088366963 
    6000    29.214175  -0.95299258   0.81926015    3.6805427    4.6742897   -2.9343578   0.26697821 
    7000    27.018613  -0.52423461   0.72502734    3.8840147    4.7780961    -2.391602   0.24952556 
    8000     29.68296   -1.0941306   0.76115334    3.1088234    4.9355249   -2.5661236   0.14114099 
    9000    27.777819  -0.76986217   0.80236035    4.2400443    4.1715072   -2.0103315  0.093596939 
   10000    27.136717  -0.85217125   0.99756088    4.3955554    4.9643946   -3.4107843   0.13682948 
   11000    27.686964   -1.2620099     0.972517     3.831538    5.5217888   -2.4670085   0.27941424 
   12000    28.127859  -0.87675152   0.81177875    4.1406258    4.7454556   -2.9594279   0.16681751 
   13000    30.148281   -1.7296769    0.8380047    3.3307213    5.0776709   -2.9041014   0.25444145 
   14000    27.642388   -1.2370085   0.90051873    3.6429123    5.2954108   -3.5136007   0.36637569 
   15000    30.279959   -1.7754534    1.4160624    3.7246339    4.4546481   -2.6531962   0.18300724 
   16000    26.551529 -0.012617956   0.71902781    4.5413835     4.431426   -2.4288943   0.26912654 
   17000    27.150587  -0.63975887   0.87250018    4.0367144    4.6507881   -3.1646504    0.1431914 
   18000    28.669541   -1.4237941    1.0343294    3.5990982     5.212459   -3.0280026   0.47258765 
   19000    28.113093  -0.94619843   0.87777229    3.6556483    4.7083097   -2.3426938   0.10869619 
   20000     26.24853  -0.31954569   0.84489351    4.1520655    5.6781303   -3.0478247   0.19994423 
   21000    28.538524   -0.6454189   0.90647073    4.6499802    4.4827071   -3.2461227   0.27271757 
   22000    26.605797    -0.446294   0.88786605     4.240551    4.6274302    -2.911372    0.4785666 
   23000    28.613516   -1.5893661   0.93682298     3.842121    4.8245772   -2.2827347  0.034664334 
   24000    28.043928   -1.0544467   0.80963115    4.0300778    4.5522595   -2.3085307  0.077854722 
   25000      29.4486   -1.1046504   0.64646582     3.029743    4.8118633    -2.339302  0.098413085 
   26000    27.682207  -0.95351364   0.77854109    3.8148835    5.1401392   -2.5629187   0.33198948 
   27000     28.29615    -1.153322   0.93505204    3.9396023    4.3359835   -2.1128348   0.11554397 
   28000    27.777713  -0.70039562   0.86653316    3.8273514    4.7695336   -2.1587573  0.076448441 
   29000    29.345959  -0.67842684   0.71007287    3.5050831    4.5293249   -2.7314611   0.14676878 
   30000    29.453039   -1.6525394   0.66146917    3.1624416     4.926744   -2.3430546  0.076319321 
   31000    27.993614  -0.89326624   0.69556772    4.1049847    4.4255785   -2.0028802  0.078274664 
   32000    29.268839   -1.3430813   0.87210879    3.8250159     4.664149   -2.4826934   0.17273148 
   33000    28.982433   -1.4046904    1.0110379    3.6400545    4.3728476   -2.4248861   0.17293707 
   34000    28.767684    -1.235993   0.93965733    3.8941935    4.6238695   -2.1686801  0.047951476 
   35000    28.760666   -0.9095848   0.75842255    3.5095026    4.6210639   -2.2905078   0.21215453 
   36000    27.846413   -0.5548615   0.68154113    3.8021532    4.3855122   -2.3380868   0.11450875 
   37000    26.925825  -0.84893008   0.93883318    3.9349257    6.0578239   -2.2198853   0.18673849 
   38000    26.641819  -0.43226933   0.80127121     4.153873    4.9322865   -2.5254225   0.49266995 
   39000    26.482185  -0.49246185   0.76433787    4.2351467    5.6460607   -2.4063413  0.074694177 
   40000    28.780727    -1.504599   0.69570699    3.9156616     4.530447   -2.1932908   0.12450068 
   41000    29.666786   -1.3475885   0.71617519    3.3121479    4.8074953   -2.2842067   0.22383033 
   42000    26.344276  -0.56993154   0.94414473    4.5085577    4.7744571   -2.2476709   0.15609042 
   43000    26.368529  -0.28307299    1.0345879    4.6078304    4.4970619   -2.1486435   0.09063684 
   44000    28.343031   -1.1321093   0.89567684    3.7997315    5.0177573   -2.2951067   0.17252977 
   45000    28.164563   -1.2188891     1.052409    4.4673052    4.3741332   -2.1818819   0.10321646 
   46000    28.360114   -1.3183272   0.87655875    4.1673619    4.7472034   -1.9929988   0.10946546 
   47000    28.110797   -1.8147323    1.0706048    4.3493837    4.8407225    -2.477246   0.10656338 
   48000    29.941098    -1.266901   0.74261977     3.409278    4.6475868    -2.800546    0.1229341 
   49000    27.712513  -0.82285875   0.79801221    4.1046988    4.5928552   -2.3547643   0.19741342 
   50000    26.101601   0.25956921   0.96145025    4.1358866    4.7865376   -2.6433207    0.2560556 
   51000    27.418515   -1.2471345   0.98406902    4.7590195    5.0048475   -2.7468444   0.30112963 
   52000    28.640907   -1.2561092   0.67156848     4.088654    4.4841402   -2.3055046   0.16128239 
   53000    29.145202   -1.6948261    1.3028405     4.075984    4.7575835   -2.4511681   0.15312155 
   54000    26.639529  -0.79916044    0.9481361    4.7424047    5.0713394   -2.0436438   0.10187539 
   55000     29.44577   -1.3258712   0.88485304     3.584783    4.7682216    -2.435797   0.19652915 
   56000    27.732147  -0.68814638   0.72646641    3.9262308    5.5983045   -2.8267678   0.27950127 
   57000    26.277713  -0.70789028   0.96287445    4.9639764    4.9430437   -2.1262807   0.17800989 
   58000     27.40146   -1.0853152   0.88812791    4.4499115    4.8073205   -2.4603595   0.10024103 
   59000    27.837107  -0.41435064   0.73063334    3.1886627     5.291948   -2.3914727   0.11942797 
   60000    27.182269  -0.22390658   0.85032255    3.9695623    4.6046355   -2.5174613   0.17993096 
   61000    27.642998  -0.89633815   0.93301327    4.0966274    4.5639633   -2.1885015   0.24750833 
   62000     30.07757   -1.9083749    1.0419481    3.6064568    4.7891757   -2.3815228  0.087368512 
   63000    27.327429  -0.86278989   0.76597051    5.0240501    5.0015756     -2.49793  0.051550929 
   64000    26.874335  -0.29381026   0.77254299    4.8229476    4.3121451    -2.268354  0.055562114 
   65000    28.740798   -1.2521975   0.95577206    4.1210704    4.3698653   -2.3349759  0.047831533 
   66000    28.958461    -1.263387   0.69028154    3.8929791    4.5627184   -2.3167891  0.067528911 
   67000      29.2788  -0.93964103   0.90048341    3.3396186    4.7059445   -2.2251727  0.088823637 
   68000    27.554179  -0.91115924    1.2565082    4.3215107    4.5897041   -2.3145103  0.080213924 
   69000    28.148442   -1.1282295   0.91331521    4.1500279    4.3688312   -2.2760433  0.058319315 
   70000    26.777779  -0.75597704   0.92880468    4.6176286    4.8395588   -2.3622901   0.12830428 
   71000    25.933905  -0.39762964   0.84697194    5.0001216    4.9541196    -2.327512   0.14406784 
   72000    27.359249   -1.2245004    1.1068753    4.6422938    4.4237653   -2.3159598   0.11933045 
   73000    29.951202   -1.3740816   0.93436218    3.0729146    4.3931587   -2.3416017   0.10228655 
   74000    27.768605  -0.62868313    1.0096931    3.5884216    5.0767967   -2.0857399  0.031094325 
   75000    28.461934  -0.82475358   0.92946253    4.1559399    4.4673976   -2.5580653  0.095585502 
   76000    30.749406   -0.9560429   0.43924144    3.1071512    4.4550123   -2.7032605   0.16374186 
   77000    29.911995   -1.2939702   0.84580596    3.1498408    4.6717163   -2.0811045  0.041934748 
   78000    27.639818  -0.96143074   0.78251294    4.7878668    4.5872375    -2.179506    0.1261654 
   79000    27.768983   -1.2067714    1.3731231    4.7071958    4.7883816   -2.5376806   0.13154367 
   80000    28.775777   -1.3175298   0.95346689    3.8435615    4.4897061   -2.2628915   0.24836002 
   81000    28.537194   -1.4252052    1.0201623    3.6767497    4.7700525    -2.211453  0.084969969 
   82000    28.435499   -1.0399478   0.74513664    3.7413538    5.0530168     -2.39201   0.24151384 
   83000    29.636898   -1.4505075    1.0882155    3.9804834    4.6806241    -2.601989   0.27609734 
   84000    28.076946  -0.90794088    1.0290095    4.1948173    4.2095433   -2.1867293  0.038007413 
   85000    28.715075  -0.86371423    1.0647233    3.5607622    4.9859522   -2.5754729   0.16846189 
   86000    30.094141   -1.8674357   0.48449326    4.1562822    4.4618863   -2.3972047   0.14582582 
   87000    27.343924   -1.0834055   0.79203313    4.1808145    4.8309822   -2.2769019  0.046946487 
   88000    28.102472   -1.0981358     1.010593     4.000881    4.5633596   -2.3274004  0.097012289 
   89000    28.017109  -0.86086492   0.67417556    3.7555233    4.7005548   -2.8897896   0.28675389 
   90000    27.253469    -1.069346   0.85049742    4.5196197    4.9332816   -2.2655902    0.2146028 
   91000    28.141371   -1.3123033   0.87120912    4.1204003     4.596656   -2.2491936   0.14134375 
   92000    28.298475    -1.214537    1.0495134    3.9823032    4.4397672   -2.4126452   0.18208573 
   93000    27.012886   -1.0360058   0.95100615    5.0438499    4.5541054   -2.1661922   0.11514434 
   94000    24.888796  -0.33768611   0.89518638     5.024959    5.7241054   -2.5672452  0.056366917 
   95000    27.651891  -0.45250246   0.68542991    4.5802427    4.2431468   -2.0940693  0.076955052 
   96000    26.619525   -1.0177393     1.016681     4.965061    4.5306403   -2.5118315   0.24807901 
   97000    27.673061  -0.37670764   0.91898739    3.8002543    4.4071637   -2.3006029  0.066525348 
   98000    27.791731   -2.0108677    1.0454982    5.1581329    4.7157808   -2.4021468  0.078102136 
   99000    27.912956   -1.1343971   0.82828174    4.0840459    4.3721685   -2.3043204  0.069352756 
  100000    27.750782   -0.6139411   0.82982051    4.5977241    4.4734937   -2.6710864   0.19985262 
Loop time of 24.3236 on 8 procs for 100000 steps with 34 atoms

Performance: 710.421 ns/day, 0.034 hours/ns, 4111.230 timesteps/s
77.2% CPU use with 8 MPI tasks x no OpenMP threads

MPI task timing breakdown:
Section |  min time  |  avg time  |  max time  |%varavg| %total
---------------------------------------------------------------
Pair    | 0.018643   | 0.2262     | 1.0521     |  67.4 |  0.93
Bond    | 0.019007   | 0.35362    | 1.3899     |  87.4 |  1.45
Neigh   | 0.090653   | 0.094587   | 0.10011    |   1.2 |  0.39
Comm    | 12.343     | 15.46      | 18.315     |  48.5 | 63.56
Output  | 0.068851   | 0.081177   | 0.12383    |   6.1 |  0.33
Modify  | 0.038915   | 0.11961    | 0.29285    |  28.2 |  0.49
Other   |            | 7.989      |            |       | 32.84

Nlocal:           4.25 ave          13 max           0 min
Histogram: 3 2 1 0 0 0 0 0 0 2
Nghost:          29.75 ave          34 max          21 min
Histogram: 2 0 0 0 0 0 0 1 2 3
Neighs:          49.25 ave         229 max           0 min
Histogram: 5 1 0 1 0 0 0 0 0 1

Total # of neighbors = 394
Ave neighs/atom = 11.588235
Ave special neighs/atom = 9.5294118
Neighbor list builds = 309
Dangerous builds = 0
Total wall time: 0:00:25
