LAMMPS (4 Jan 2019)
# This script reproduces stress trajectories from Fig. 1 in
# Ravelo, Holian, Germann, and Lomdahl, PRB 70 014103 (2004)
#
# Three thermostatting scenarios are visited: undamped (nodrag),
# damped (drag) and Nose-Hoover chain (nhchains).
#
# The axial and shear stress trajectories are printed to the
# file "stress_vs_t.dat". For the damped case, the original figure
# seems to be a plot of 2*tau, rather than tau.
#
# The script also demonstrates how to
# orient a crystal along <110>,
# and how to use the lj/cubic pair style.

units           lj
boundary        p p p

atom_style	atomic

# Set up FCC lattice with z axis along <110>

lattice                fcc 1.4142136                        orient x 0 0 1                        orient y 1 -1 0                        orient z 1 1 0
Lattice spacing in x,y,z = 1.41421 2 2

region         mycell block 0.0 5.0 0.0 5.0 0.0 5.0 units lattice
create_box     1 mycell
Created orthogonal box = (0 0 0) to (7.07107 10 10)
  2 by 2 by 2 MPI processor grid
mass           * 1.0
create_atoms   1 box
Created 1000 atoms
  Time spent = 0.000715796 secs

# Using units of Rmin, so sigma = 2^-1/6 = 0.8908987

pair_style lj/cubic
pair_coeff * * 1.0 0.8908987

# Relax box dimensions

fix             3 all box/relax aniso 0.0 vmax 1.0e-4 nreset 100

thermo          100
thermo_style	custom step temp pe etotal pxx pyy pzz lx ly lz

min_modify      line quadratic
minimize	0.0 1.0e-6 10000 100000
WARNING: Using 'neigh_modify every 1 delay 0 check yes' setting during minimization (../min.cpp:168)
Neighbor list info ...
  update every 1 steps, delay 0 steps, check yes
  max neighbors/atom: 2000, page size: 100000
  master list distance cutoff = 1.84754
  ghost atom cutoff = 1.84754
  binsize = 0.923769, bins = 8 11 11
  1 neighbor lists, perpetual/occasional/extra = 1 0 0
  (1) pair lj/cubic, perpetual
      attributes: half, newton on
      pair build: half/bin/atomonly/newton
      stencil: half/bin/3d/newton
      bin: standard
Per MPI rank memory allocation (min/avg/max) = 4.194 | 4.194 | 4.194 Mbytes
Step Temp PotEng TotEng Pxx Pyy Pzz Lx Ly Lz 
       0            0   -6.2937539   -6.2937539   -2.7722431   -2.7722431   -2.7722431    7.0710677    9.9999999    9.9999999 
     100            0   -6.3319018   -6.3319018  -0.75971321  -0.75971321  -0.75971321    7.0003571    9.8999999    9.8999999 
     134            0   -6.3344257   -6.3344257 -4.4920341e-13 -4.9379661e-13 -4.9619755e-13    6.9780266    9.8684199    9.8684199 
Loop time of 0.0249708 on 8 procs for 134 steps with 1000 atoms

98.8% CPU use with 8 MPI tasks x no OpenMP threads

Minimization stats:
  Stopping criterion = force tolerance
  Energy initial, next-to-last, final = 
         -6.2937539309     -6.33442568056     -6.33442568056
  Force two-norm initial, final = 3395.29 5.80839e-10
  Force max component initial, final = 1960.27 3.41692e-10
  Final line search alpha, max atom move = 1 3.41692e-10
  Iterations, force evaluations = 134 137

MPI task timing breakdown:
Section |  min time  |  avg time  |  max time  |%varavg| %total
---------------------------------------------------------------
Pair    | 0.0049657  | 0.0070024  | 0.0089643  |   1.4 | 28.04
Neigh   | 0.000102   | 0.00014885 | 0.00020468 |   0.0 |  0.60
Comm    | 0.0079623  | 0.0098536  | 0.011816   |   1.2 | 39.46
Output  | 2.4954e-05 | 2.6441e-05 | 3.088e-05  |   0.0 |  0.11
Modify  | 0          | 0          | 0          |   0.0 |  0.00
Other   |            | 0.00794    |            |       | 31.80

Nlocal:    125 ave 183 max 82 min
Histogram: 1 2 0 1 1 0 2 0 0 1
Nghost:    600 ave 643 max 542 min
Histogram: 1 0 0 2 0 1 1 0 2 1
Neighs:    2625 ave 3867 max 1722 min
Histogram: 1 2 0 1 1 0 2 0 0 1

Total # of neighbors = 21000
Ave neighs/atom = 21
Neighbor list builds = 1
Dangerous builds = 0

# Define initial velocity

velocity        all create 0.01 87287 mom yes rot yes dist gaussian
write_restart restart.equil

# Start Run #1

log log.nodrag
