LAMMPS (4 Jan 2019)
# 2d Lennard-Jones melt and subsequent energy minimization,
# followed by box relaxation to a target stress state
#
units		lj
dimension	2
atom_style	atomic

lattice		sq2 0.8442
Lattice spacing in x,y,z = 1.53919 1.53919 1.53919
region		box block 0 20 0 20 -0.1 0.1
create_box	1 box
Created orthogonal box = (0 0 -0.153919) to (30.7838 30.7838 0.153919)
  4 by 2 by 1 MPI processor grid
create_atoms	1 box
Created 800 atoms
  Time spent = 0.000816299 secs
mass		1 1.0

velocity	all create 5.0 87287 loop geom

pair_style	lj/cut 2.5
pair_coeff	1 1 1.0 1.0 2.5
pair_modify	shift yes

neighbor	0.3 bin
neigh_modify	delay 0 every 1 check yes

fix		1 all nve
fix		2 all enforce2d

#dump		1 all atom 500 dump.min

#dump		2 all image 500 image.*.jpg type type #		zoom 1.6 adiam 1.5
#dump_modify	2 pad 4

#dump		3 all movie 500 movie.mpg type type #		zoom 1.6 adiam 1.5
#dump_modify	3 pad 4

thermo		100

run		1000
Neighbor list info ...
  update every 1 steps, delay 0 steps, check yes
  max neighbors/atom: 2000, page size: 100000
  master list distance cutoff = 2.8
  ghost atom cutoff = 2.8
  binsize = 1.4, bins = 22 22 1
  1 neighbor lists, perpetual/occasional/extra = 1 0 0
  (1) pair lj/cut, perpetual
      attributes: half, newton on
      pair build: half/bin/atomonly/newton
      stencil: half/bin/2d/newton
      bin: standard
Per MPI rank memory allocation (min/avg/max) = 3.048 | 3.048 | 3.048 Mbytes
Step Temp E_pair E_mol TotEng Press 
       0            5    -2.461717            0     2.532033    5.0190509 
     100    3.2788864  -0.74311698            0    2.5316708    15.912832 
     200    3.3041082  -0.77000277            0    2.5299752    15.602653 
     300    3.3840228  -0.84859211            0    2.5312006    15.188203 
     400    3.3916063  -0.85694601            0    2.5304208    15.383853 
     500    3.3136052  -0.77935263            0    2.5301106    15.833296 
     600    3.3888915  -0.85213737            0     2.532518    15.162759 
     700    3.2123649  -0.67641967            0    2.5319297    16.310583 
     800    3.3016375  -0.76570232            0    2.5318081    15.639273 
     900    3.4622271  -0.92615927            0    2.5317401    14.773596 
    1000    3.3050343  -0.76996308            0    2.5309399    15.712159 
Loop time of 0.0666872 on 8 procs for 1000 steps with 800 atoms

Performance: 6478002.031 tau/day, 14995.375 timesteps/s
99.6% CPU use with 8 MPI tasks x no OpenMP threads

MPI task timing breakdown:
Section |  min time  |  avg time  |  max time  |%varavg| %total
---------------------------------------------------------------
Pair    | 0.013947   | 0.016687   | 0.024994   |   3.1 | 25.02
Neigh   | 0.0072973  | 0.0080853  | 0.010536   |   1.2 | 12.12
Comm    | 0.023333   | 0.032049   | 0.037533   |   2.6 | 48.06
Output  | 0.00023732 | 0.00028055 | 0.00035733 |   0.0 |  0.42
Modify  | 0.0020049  | 0.0022506  | 0.0030459  |   0.8 |  3.37
Other   |            | 0.007335   |            |       | 11.00

Nlocal:    100 ave 104 max 97 min
Histogram: 4 0 0 0 0 1 0 0 1 2
Nghost:    133.875 ave 139 max 126 min
Histogram: 1 1 0 1 0 0 0 2 1 2
Neighs:    967.375 ave 1029 max 903 min
Histogram: 2 0 2 0 0 0 1 0 0 3

Total # of neighbors = 7739
Ave neighs/atom = 9.67375
Neighbor list builds = 203
Dangerous builds = 0

# perform the box relaxation by progressively
# adding more degrees of freedom, for smoother
# convergence

neigh_modify	delay 0 every 1 check yes

velocity	all create 0.0 1
thermo		50

# atoms only

minimize	1.0e-6 0.001 1000 10000
Per MPI rank memory allocation (min/avg/max) = 4.173 | 4.173 | 4.173 Mbytes
Step Temp E_pair E_mol TotEng Press 
    1000            0  -0.76996308            0  -0.76996308    12.925537 
    1050            0   -2.8316906            0   -2.8316906   -1.1436793 
    1100            0   -2.8698684            0   -2.8698684   -1.1790342 
    1150            0   -2.8852195            0   -2.8852195   -1.2239458 
    1200            0   -2.8885583            0   -2.8885583   -1.1710286 
    1250            0   -2.8896072            0   -2.8896072   -1.2155339 
    1300            0   -2.8907612            0   -2.8907612   -1.2094023 
    1350            0   -2.8961075            0   -2.8961075   -1.2483367 
    1356            0   -2.8961315            0   -2.8961315    -1.248365 
Loop time of 0.0457946 on 8 procs for 356 steps with 800 atoms

100.0% CPU use with 8 MPI tasks x no OpenMP threads

Minimization stats:
  Stopping criterion = energy tolerance
  Energy initial, next-to-last, final = 
       -0.769963084676      -2.8961287361     -2.89613149076
  Force two-norm initial, final = 1953.14 0.793333
  Force max component initial, final = 359.633 0.167076
  Final line search alpha, max atom move = 0.199372 0.0333102
  Iterations, force evaluations = 356 705

MPI task timing breakdown:
Section |  min time  |  avg time  |  max time  |%varavg| %total
---------------------------------------------------------------
Pair    | 0.013998   | 0.015611   | 0.017862   |   0.9 | 34.09
Neigh   | 0.0020925  | 0.0023358  | 0.0026861  |   0.4 |  5.10
Comm    | 0.013222   | 0.014426   | 0.016594   |   0.9 | 31.50
Output  | 0.00012636 | 0.00013203 | 0.00015207 |   0.0 |  0.29
Modify  | 0.00048092 | 0.0005262  | 0.00058507 |   0.0 |  1.15
Other   |            | 0.01276    |            |       | 27.87

Nlocal:    100 ave 104 max 96 min
Histogram: 1 1 1 0 0 0 3 1 0 1
Nghost:    136.75 ave 140 max 134 min
Histogram: 2 0 0 2 0 1 1 0 1 1
Neighs:    877.5 ave 943 max 822 min
Histogram: 2 0 0 1 1 1 2 0 0 1

Total # of neighbors = 7020
Ave neighs/atom = 8.775
Neighbor list builds = 66
Dangerous builds = 0

# isotropic volume relaxation to hydrostatic target

fix             3 all box/relax iso 1.5 vmax 1.0e-3

variable        emin equal pe+f_3/atoms
thermo_style    custom step temp pe pxx pyy pxy f_3 v_emin

# anisotropic volume relaxation to hydrostatic target

minimize	0.0 10.0e0 10000 100000
Per MPI rank memory allocation (min/avg/max) = 4.173 | 4.173 | 4.173 Mbytes
Step Temp PotEng Pxx Pyy Pxy f_3 v_emin 
    1356            0   -2.8961315   -1.1822781   -1.3144519  0.063841046            0   -2.8961315 
    1400            0   -2.9060684    1.4961079    1.4246571  0.042153219  -0.11529506   -3.0213634 
    1450            0   -2.9099637    1.5313999    1.5917933 0.0010653076  -0.12702184   -3.0369855 
    1454            0   -2.9117974     1.470832    1.5324827 0.00018286751  -0.12575716   -3.0375546 
Loop time of 0.0109182 on 8 procs for 98 steps with 800 atoms

98.0% CPU use with 8 MPI tasks x no OpenMP threads

Minimization stats:
  Stopping criterion = force tolerance
  Energy initial, next-to-last, final = 
        -2.89613149076     -3.03755151441     -3.03755458712
  Force two-norm initial, final = 5208.94 8.80327
  Force max component initial, final = 5208.94 3.02799
  Final line search alpha, max atom move = 3.18148e-05 9.63348e-05
  Iterations, force evaluations = 98 154

MPI task timing breakdown:
Section |  min time  |  avg time  |  max time  |%varavg| %total
---------------------------------------------------------------
Pair    | 0.0029728  | 0.0032771  | 0.0034921  |   0.3 | 30.01
Neigh   | 0.00042246 | 0.00046991 | 0.00050951 |   0.0 |  4.30
Comm    | 0.0024127  | 0.0026437  | 0.0028928  |   0.3 | 24.21
Output  | 8.219e-05  | 8.3719e-05 | 8.8291e-05 |   0.0 |  0.77
Modify  | 9.5567e-05 | 0.00010306 | 0.00010766 |   0.0 |  0.94
Other   |            | 0.004341   |            |       | 39.76

Nlocal:    100 ave 103 max 95 min
Histogram: 1 0 1 0 0 0 1 3 1 1
Nghost:    142.875 ave 148 max 140 min
Histogram: 1 2 2 1 0 0 0 1 0 1
Neighs:    921.125 ave 974 max 857 min
Histogram: 1 0 1 0 0 1 4 0 0 1

Total # of neighbors = 7369
Ave neighs/atom = 9.21125
Neighbor list builds = 16
Dangerous builds = 0

fix             3 all box/relax aniso 1.5 vmax 1.0e-3

minimize	0.0 10.0 10000 100000
Per MPI rank memory allocation (min/avg/max) = 4.173 | 4.173 | 4.173 Mbytes
Step Temp PotEng Pxx Pyy Pxy f_3 v_emin 
    1454            0   -2.9117974     1.470832    1.5324827 0.00018286751            0   -2.9117974 
    1455            0   -2.9119106    1.4990109    1.4963015 0.00060306917 9.419127e-05   -2.9118164 
Loop time of 0.000266317 on 8 procs for 1 steps with 800 atoms

100.1% CPU use with 8 MPI tasks x no OpenMP threads

Minimization stats:
  Stopping criterion = force tolerance
  Energy initial, next-to-last, final = 
        -2.91179742598     -2.91179742598      -2.9118163695
  Force two-norm initial, final = 39.3214 9.01724
  Force max component initial, final = 28.6034 3.25513
  Final line search alpha, max atom move = 3.49609e-05 0.000113802
  Iterations, force evaluations = 1 2

MPI task timing breakdown:
Section |  min time  |  avg time  |  max time  |%varavg| %total
---------------------------------------------------------------
Pair    | 6.6251e-05 | 7.2581e-05 | 8.5284e-05 |   0.0 | 27.25
Neigh   | 0          | 0          | 0          |   0.0 |  0.00
Comm    | 4.2378e-05 | 5.2075e-05 | 6.0267e-05 |   0.0 | 19.55
Output  | 0          | 0          | 0          |   0.0 |  0.00
Modify  | 2.1141e-06 | 2.3031e-06 | 2.6189e-06 |   0.0 |  0.86
Other   |            | 0.0001394  |            |       | 52.33

Nlocal:    100 ave 103 max 95 min
Histogram: 1 0 1 0 0 0 1 3 1 1
Nghost:    142.5 ave 147 max 140 min
Histogram: 2 1 3 0 0 0 0 0 1 1
Neighs:    919.5 ave 971 max 857 min
Histogram: 1 0 1 0 0 1 4 0 0 1

Total # of neighbors = 7356
Ave neighs/atom = 9.195
Neighbor list builds = 0
Dangerous builds = 0

# anisotropic volume relaxation to non-hydrostatic target

fix             3 all box/relax x 1.0 y 2.0 vmax 1.0e-3

minimize	0.0 10.0 10000 100000
Per MPI rank memory allocation (min/avg/max) = 4.173 | 4.173 | 4.173 Mbytes
Step Temp PotEng Pxx Pyy Pxy f_3 v_emin 
    1455            0   -2.9119106    1.4990109    1.4963015 0.00060306917 3.5527137e-17   -2.9119106 
    1500            0   -2.9084067    1.0890778    1.9944673 -0.040308595 -0.014630893   -2.9230376 
    1550            0   -2.9142277   0.94517382    1.8847843 -0.079921771 -0.015304392   -2.9295321 
    1590            0   -2.9135142   0.98521096     1.990553 -0.093382169 -0.019188841    -2.932703 
Loop time of 0.0159562 on 8 procs for 135 steps with 800 atoms

100.0% CPU use with 8 MPI tasks x no OpenMP threads

Minimization stats:
  Stopping criterion = force tolerance
  Energy initial, next-to-last, final = 
        -2.91191056077     -2.93257704936     -2.93270303168
  Force two-norm initial, final = 624.444 9.69148
  Force max component initial, final = 443.568 4.56709
  Final line search alpha, max atom move = 0.000256278 0.00117044
  Iterations, force evaluations = 135 220

MPI task timing breakdown:
Section |  min time  |  avg time  |  max time  |%varavg| %total
---------------------------------------------------------------
Pair    | 0.0043939  | 0.0048565  | 0.0051357  |   0.4 | 30.44
Neigh   | 0.00021805 | 0.00023899 | 0.00026725 |   0.0 |  1.50
Comm    | 0.0032049  | 0.003557   | 0.0039242  |   0.4 | 22.29
Output  | 9.8913e-05 | 0.00010054 | 0.00010696 |   0.0 |  0.63
Modify  | 0.00013963 | 0.00015066 | 0.00015892 |   0.0 |  0.94
Other   |            | 0.007052   |            |       | 44.20

Nlocal:    100 ave 102 max 97 min
Histogram: 2 0 0 0 1 0 1 0 1 3
Nghost:    142.125 ave 145 max 139 min
Histogram: 2 0 0 1 0 1 2 0 0 2
Neighs:    925.125 ave 968 max 893 min
Histogram: 2 1 0 0 2 1 0 1 0 1

Total # of neighbors = 7401
Ave neighs/atom = 9.25125
Neighbor list builds = 7
Dangerous builds = 0

minimize	0.0 1.0 10000 100000
Per MPI rank memory allocation (min/avg/max) = 4.173 | 4.173 | 4.173 Mbytes
Step Temp PotEng Pxx Pyy Pxy f_3 v_emin 
    1590            0   -2.9135142   0.98521096     1.990553 -0.093382169            0   -2.9135142 
    1600            0   -2.9127958    1.0525395    2.0296289  -0.10145636 -0.0016955224   -2.9144913 
    1650            0   -2.9164467   0.98191982    1.9637442  -0.11777937 -0.0021225759   -2.9185693 
    1700            0   -2.9180335    0.9723008    1.9725257  -0.13750737 -0.0053515216    -2.923385 
    1750            0   -2.9202516     1.001423    1.9968644  -0.13446749 -0.0080334744   -2.9282851 
    1800            0   -2.9222131   0.99066945    1.9721841  -0.15331487 -0.0086502913   -2.9308634 
    1850            0   -2.9220418   0.99574932    2.0550819  -0.16046252 -0.011307212    -2.933349 
    1900            0   -2.9252432    1.0145019    1.9524561  -0.15560686 -0.010071721   -2.9353149 
    1950            0   -2.9255497   0.95263561    2.0120262  -0.14977964 -0.011313186   -2.9368629 
    2000            0   -2.9259477    1.0341577    2.0382103  -0.14066135 -0.012774551   -2.9387222 
    2050            0   -2.9279389    1.0140691      1.97487  -0.14335677 -0.011884408   -2.9398233 
    2100            0   -2.9293547   0.99106352    1.9559458  -0.14039158 -0.011854899   -2.9412096 
    2150            0   -2.9301414   0.99735187    1.9495482  -0.12097113 -0.012147719   -2.9422891 
    2200            0   -2.9302372    1.0328763    1.9530704  -0.08555677 -0.013522836     -2.94376 
    2250            0   -2.9317276    1.0469881    1.9708166 -0.097612977 -0.015165937   -2.9468935 
    2300            0   -2.9333429   0.99919998    1.9553885  -0.10187295 -0.015103678   -2.9484466 
    2350            0   -2.9341363   0.93054119    1.9539913  -0.10004253 -0.015301341   -2.9494376 
    2400            0   -2.9334084   0.97652021    1.9976703 -0.098490992 -0.017077962   -2.9504863 
    2450            0   -2.9335367    1.0161157    2.0146043 -0.097827739 -0.018292191   -2.9518289 
    2500            0   -2.9363978    1.0021985    1.9102866 -0.090738955 -0.017848709   -2.9542465 
    2550            0   -2.9383866   0.93905882    1.9405532  -0.10994212 -0.020384547   -2.9587711 
    2600            0   -2.9447246   0.99420822    1.9736089  -0.10961663 -0.023882792   -2.9686074 
    2650            0   -2.9492921   0.93718691    2.0110101  -0.11587427 -0.026048163   -2.9753403 
    2700            0   -2.9521508   0.96609982    2.0153145  -0.12989612 -0.027776398   -2.9799272 
    2750            0   -2.9553287   0.99631096    1.9952499  -0.14359042 -0.029808185   -2.9851369 
    2800            0    -2.958127   0.97674714    1.9779208  -0.14953862 -0.031125083   -2.9892521 
    2850            0   -2.9610139   0.94212894    1.8993447  -0.15039415 -0.030742197   -2.9917561 
    2900            0   -2.9609534    1.0357846    2.0116088  -0.14802069 -0.035369602    -2.996323 
    2950            0    -2.964124   0.92581014    2.0096109  -0.13932726 -0.036831181   -3.0009551 
    3000            0    -2.970801   0.96218905    1.9699887  -0.14392341 -0.039208766   -3.0100097 
    3050            0    -2.978037   0.98354434    2.0105897  -0.14558652 -0.042672702   -3.0207097 
    3100            0   -2.9844566    1.0817932    2.0311025  -0.14432083 -0.045927566   -3.0303841 
    3150            0   -2.9861617    1.0222395    2.0646705  -0.14628109 -0.046947619   -3.0331093 
    3200            0   -2.9879626   0.99890133    2.0256473  -0.14933994 -0.046655137   -3.0346177 
    3250            0    -2.989684    1.0146431    1.9820405  -0.15284008 -0.046648176   -3.0363322 
    3300            0   -2.9915753   0.97464343     1.920097  -0.15295094 -0.045998905   -3.0375742 
    3350            0   -2.9907045   0.95271853    2.0075438  -0.15211512 -0.048322626   -3.0390271 
    3400            0    -2.992309    1.0692668    1.9872171  -0.16113639 -0.049730936   -3.0420399 
    3450            0    -2.994817   0.98655522    1.9740984  -0.16892013  -0.05010876   -3.0449257 
    3500            0   -2.9975385   0.97814912    1.9220261  -0.11902166 -0.050263902   -3.0478024 
    3550            0   -2.9976364   0.95919827    1.9682921 -0.094602559 -0.052281294   -3.0499177 
    3600            0   -2.9982647   0.98211379    1.9811783 -0.052065992 -0.053870418   -3.0521352 
    3650            0   -2.9992564   0.93112595    2.0106505  0.010676645 -0.055959928   -3.0552164 
    3700            0   -2.9985937    1.0118196    2.0100247  0.090276604 -0.059201134   -3.0577948 
    3750            0   -2.9995104   0.96672256    2.0234883   0.17364467 -0.061579917   -3.0610903 
    3800            0   -3.0043985   0.93213122    1.9581567    0.1709352 -0.061687571    -3.066086 
    3850            0   -3.0036834    1.0014157    2.0189885   0.17260555 -0.063497795   -3.0671812 
    3900            0   -3.0072476   0.96906164    1.9060047   0.17386896 -0.062037785   -3.0692854 
    3950            0    -3.007126   0.95417605    1.9829457    0.1691787   -0.0636953   -3.0708213 
    4000            0   -3.0084898   0.96411248    1.9697868   0.16383482 -0.063468261   -3.0719581 
    4050            0   -3.0096806     0.968005    1.9729583   0.16677969 -0.063298422    -3.072979 
    4100            0   -3.0111783   0.96789446    1.9744036   0.17991269 -0.063060839   -3.0742391 
    4150            0   -3.0115587   0.96135088    1.9703527   0.17820209 -0.063076582   -3.0746352 
    4200            0   -3.0120718   0.97855933    1.9587022   0.17610877 -0.063112192    -3.075184 
    4250            0   -3.0124641   0.94923506    1.9702742   0.18058534 -0.063374544   -3.0758387 
    4300            0   -3.0119088   0.97748106    1.9830527    0.1664433 -0.064381942   -3.0762907 
    4350            0   -3.0129788   0.99275215    1.9523135   0.16409161 -0.064286182    -3.077265 
    4400            0    -3.013346    0.9840805     1.985439   0.16781566 -0.065655264   -3.0790012 
    4450            0   -3.0149078   0.95490277    1.9744546   0.18773216 -0.065543336   -3.0804511 
    4500            0   -3.0173284    0.9628082    1.9405834   0.21890114   -0.0652929   -3.0826213 
    4550            0   -3.0180963   0.99241437    1.9869726   0.21448963 -0.066742409   -3.0848387 
    4600            0   -3.0189845   0.96896139    1.9577507   0.21485346 -0.066156521    -3.085141 
    4650            0   -3.0189597   0.96742395    1.9694269   0.20830244  -0.06635537    -3.085315 
    4700            0   -3.0190382   0.97132091     1.969098   0.20456682 -0.066360279   -3.0853985 
    4750            0   -3.0211115   0.95171375    1.9246201   0.18682214 -0.065107803   -3.0862193 
    4800            0   -3.0217398    0.9483427    1.9423003   0.19973254 -0.065177582   -3.0869174 
    4850            0   -3.0221224   0.94632989    1.9554675   0.21204086 -0.065220325   -3.0873427 
    4900            0   -3.0224643   0.95604159     1.960534   0.21427033 -0.065194252   -3.0876586 
    4950            0    -3.023186   0.97391054    1.9530967   0.21573253 -0.064747069   -3.0879331 
    5000            0   -3.0230545   0.98509133    1.9782951   0.21709346 -0.065073675   -3.0881282 
    5050            0   -3.0232929   0.97606567    1.9844269   0.21602365 -0.065007205   -3.0883001 
    5100            0   -3.0236471   0.96582866     1.979757   0.21297499  -0.06480124   -3.0884483 
    5150            0    -3.023749   0.96367045    1.9802786   0.21370173 -0.064851636   -3.0886006 
    5200            0   -3.0238541   0.96425761    1.9779223   0.20941119 -0.064905888     -3.08876 
    5250            0   -3.0239845   0.96836335    1.9758974   0.21173672  -0.06490772   -3.0888922 
    5300            0   -3.0240118    0.9692741    1.9776834   0.21237549 -0.064963848   -3.0889756 
    5350            0   -3.0239404   0.97669433    1.9788528   0.21185491 -0.065089366   -3.0890298 
    5400            0   -3.0240999   0.97590547    1.9704407   0.20851201 -0.064965285   -3.0890652 
    5450            0   -3.0241764   0.97579753    1.9691804   0.20692991 -0.064914462   -3.0890908 
    5500            0   -3.0241927   0.97445134    1.9701523    0.2047609 -0.064918448   -3.0891111 
    5550            0   -3.0242669   0.97060553    1.9671419   0.20709519 -0.064861748   -3.0891286 
    5600            0   -3.0241074   0.96916556    1.9754141   0.21082715 -0.065035253   -3.0891427 
    5650            0   -3.0241238    0.9739127    1.9751582   0.21331777 -0.065029111    -3.089153 
    5700            0   -3.0241619   0.97144979    1.9752948   0.21305551 -0.064999731   -3.0891616 
    5750            0    -3.024199   0.97131827    1.9747118    0.2119218  -0.06496886   -3.0891678 
    5800            0    -3.024165   0.97256762     1.976396    0.2121703 -0.065008299   -3.0891733 
    5828            0   -3.0242112   0.97197311    1.9740751   0.21128815 -0.064965486   -3.0891767 
Loop time of 0.554936 on 8 procs for 4238 steps with 800 atoms

100.0% CPU use with 8 MPI tasks x no OpenMP threads

Minimization stats:
  Stopping criterion = force tolerance
  Energy initial, next-to-last, final = 
        -2.91351419023     -3.08917660285     -3.08917667505
  Force two-norm initial, final = 17.6353 0.770261
  Force max component initial, final = 13.0003 0.360249
  Final line search alpha, max atom move = 0.000488846 0.000176106
  Iterations, force evaluations = 4238 8017

MPI task timing breakdown:
Section |  min time  |  avg time  |  max time  |%varavg| %total
---------------------------------------------------------------
Pair    | 0.15994    | 0.17464    | 0.19346    |   2.4 | 31.47
Neigh   | 0.0028308  | 0.0030011  | 0.0032745  |   0.3 |  0.54
Comm    | 0.11557    | 0.12838    | 0.13832    |   2.2 | 23.13
Output  | 0.0039972  | 0.0040333  | 0.0042468  |   0.1 |  0.73
Modify  | 0.0050968  | 0.0054416  | 0.0059678  |   0.4 |  0.98
Other   |            | 0.2394     |            |       | 43.15

Nlocal:    100 ave 105 max 97 min
Histogram: 2 1 1 1 0 1 0 1 0 1
Nghost:    144.625 ave 152 max 134 min
Histogram: 1 0 0 1 0 1 1 3 0 1
Neighs:    908.75 ave 951 max 871 min
Histogram: 1 0 1 2 1 0 1 1 0 1

Total # of neighbors = 7270
Ave neighs/atom = 9.0875
Neighbor list builds = 91
Dangerous builds = 0

minimize	0.0 1.0e-2 10000 100000
Per MPI rank memory allocation (min/avg/max) = 4.173 | 4.173 | 4.173 Mbytes
Step Temp PotEng Pxx Pyy Pxy f_3 v_emin 
    5828            0   -3.0242112   0.97197311    1.9740751   0.21128815 7.1054274e-17   -3.0242112 
    5850            0   -3.0236148    1.0000424    1.9994034   0.21185245 -0.00060586731   -3.0242206 
    5900            0   -3.0236099   0.99979952    1.9995746   0.21127085 -0.00061331265   -3.0242232 
    5950            0   -3.0236089   0.99936866    1.9998504     0.210817 -0.00061556115   -3.0242244 
    6000            0   -3.0236096   0.99996893    2.0002385   0.20985887 -0.00061613784   -3.0242257 
    6050            0   -3.0236174   0.99992241    2.0001372   0.20986885 -0.00060855284   -3.0242259 
    6100            0   -3.0236158   0.99997528     2.000238   0.20947559 -0.00061056746   -3.0242263 
    6150            0   -3.0236217   0.99973551    2.0001222   0.20930538 -0.00060485551   -3.0242265 
    6200            0   -3.0236403    1.0006666    1.9989538    0.2064215 -0.00058835925   -3.0242286 
    6250            0   -3.0236254     1.000584    1.9997672   0.20652326 -0.00060374044   -3.0242292 
    6300            0   -3.0236172    1.0001518    2.0001267   0.20608985 -0.00061254261   -3.0242297 
    6350            0   -3.0236179    1.0001524    2.0001378   0.20578461 -0.00061215612     -3.02423 
    6400            0   -3.0235986     1.000016    2.0007775   0.20448951 -0.00063219662   -3.0242308 
    6450            0   -3.0236004   0.99892531    2.0007303   0.20221353 -0.00063140814   -3.0242318 
    6500            0   -3.0236221    0.9999115    1.9993615   0.20083212 -0.00061051826   -3.0242326 
    6550            0   -3.0236032    1.0002253     2.000407   0.20020858 -0.00062967441   -3.0242329 
    6600            0   -3.0236165    1.0000974    1.9997968   0.19984602 -0.00061696445   -3.0242335 
    6650            0   -3.0235961    1.0002741    2.0007205   0.19943142 -0.00063827862   -3.0242344 
    6700            0   -3.0236324   0.99959732    1.9994126   0.19908898 -0.00060282461   -3.0242352 
    6750            0   -3.0236295    1.0005064    1.9996327   0.19861707 -0.00060657324   -3.0242361 
    6800            0   -3.0236205    1.0013887    1.9999832   0.19834875 -0.00061639167   -3.0242369 
    6850            0   -3.0236145   0.99995927    2.0003543    0.1983458 -0.00062366109   -3.0242381 
    6900            0   -3.0236017    1.0005531    2.0002062    0.1983687 -0.0006373848   -3.0242391 
    6950            0   -3.0235787   0.99951112    2.0009336   0.19864877 -0.0006618384   -3.0242406 
    7000            0   -3.0235872   0.99973732     1.998735   0.19962659 -0.00065514056   -3.0242423 
    7050            0   -3.0235034    1.0010935    2.0011235   0.20063949 -0.00074042404   -3.0242438 
    7100            0   -3.0223576    1.0078125    2.0610837   0.20491612 -0.0020392169   -3.0243969 
    7150            0   -3.0257949    1.0852228    2.0818702   0.22816422 -0.0040486461   -3.0298436 
    7200            0   -3.0293176   0.97940746    2.0223246   0.23620976 -0.0032445956   -3.0325622 
    7250            0    -3.030323   0.98716888    1.9978034   0.23864255 -0.003286668   -3.0336097 
    7300            0    -3.030339     1.009342    2.0005892   0.23304804 -0.0038392842   -3.0341783 
    7350            0   -3.0306822   0.99539823     1.999576   0.22807639 -0.0037472184   -3.0344294 
    7400            0   -3.0306942   0.98904831    2.0041609   0.22387702 -0.0038118055   -3.0345061 
    7450            0   -3.0311153    1.0027864    1.9940017    0.2097516 -0.0036669541   -3.0347822 
    7500            0     -3.03138   0.99468893    2.0057592   0.19963966 -0.0036443829   -3.0350244 
    7550            0   -3.0317934   0.99316806    1.9895612   0.19191556 -0.0033081404   -3.0351015 
    7600            0   -3.0317781    1.0041119    1.9935415   0.18865061 -0.0033974903   -3.0351756 
    7650            0   -3.0316912    1.0083542    2.0003056   0.19081221 -0.0035363722   -3.0352276 
    7700            0     -3.03176   0.99675779    2.0030432    0.1903033 -0.003507798   -3.0352678 
    7750            0   -3.0319319   0.99555893     1.993876   0.18959789 -0.0033657074   -3.0352976 
    7800            0   -3.0318381    1.0025836    1.9972548   0.18765176 -0.0034819886   -3.0353201 
    7850            0   -3.0317336   0.99800187    2.0047367    0.1880221 -0.0036085861   -3.0353422 
    7900            0   -3.0319387   0.99031998    1.9939808   0.19060758 -0.0034724287   -3.0354111 
    7950            0   -3.0318764   0.99464594    1.9917195   0.18502138 -0.0035981263   -3.0354745 
    8000            0   -3.0317854   0.99634965    1.9920608   0.17904479 -0.0037364161   -3.0355218 
    8050            0   -3.0317756   0.99999051    1.9893819   0.17883327 -0.0037850186   -3.0355606 
    8100            0   -3.0317732    1.0034065    1.9932341   0.18674251 -0.0038350615   -3.0356082 
    8150            0   -3.0318558    1.0023575    1.9959505   0.19025205 -0.0037869712   -3.0356428 
    8200            0   -3.0318417    1.0034538    1.9969966   0.18774023 -0.003824948   -3.0356666 
    8250            0   -3.0317612     1.004863    2.0025857   0.18847659 -0.0039518472    -3.035713 
    8300            0   -3.0318186   0.99814461    2.0006363   0.18900834 -0.0039186301   -3.0357372 
    8350            0   -3.0318069    1.0021772    2.0012114    0.1899775 -0.0039355791   -3.0357425 
    8400            0   -3.0318539    1.0005723    1.9999553   0.19225646 -0.0038930412   -3.0357469 
    8450            0    -3.031835   0.99850342    2.0015602   0.19308192 -0.0039150838   -3.0357501 
    8500            0   -3.0319495   0.99800573    1.9973946   0.19437526 -0.0038075352   -3.0357571 
    8550            0   -3.0319322   0.99842465    1.9983163   0.19437116 -0.0038263722   -3.0357586 
    8600            0   -3.0319111   0.99894486    1.9991267   0.19415083 -0.0038488211   -3.0357599 
    8650            0   -3.0318878    1.0005997    2.0004112   0.19387761 -0.0038733206   -3.0357611 
    8700            0   -3.0319263   0.99875856    1.9988531   0.19382749 -0.0038358879   -3.0357622 
    8750            0   -3.0318911    1.0035281    2.0005807   0.19433103 -0.003872828   -3.0357639 
    8800            0   -3.0319799    1.0042335    1.9984172   0.19410863 -0.0038017123   -3.0357816 
    8850            0   -3.0319792   0.99705809    2.0021129   0.19220252 -0.0038207825      -3.0358 
    8900            0   -3.0321056    1.0072274    1.9924174   0.19036301 -0.0037220276   -3.0358276 
    8950            0   -3.0320176   0.99544009    2.0010632   0.19133299 -0.0038373575    -3.035855 
    9000            0   -3.0320096     1.002886    1.9996173   0.19345006 -0.0038595836   -3.0358692 
    9050            0   -3.0320698   0.99630169    1.9969287   0.19346913 -0.0038104752   -3.0358803 
    9100            0   -3.0319948   0.99767701    1.9998637   0.19284412 -0.0038923795   -3.0358872 
    9150            0   -3.0319815   0.99905236    2.0021338   0.19255172 -0.0039115164   -3.0358931 
    9200            0   -3.0320459    1.0004864    2.0006196   0.19233273  -0.00385169   -3.0358976 
    9250            0   -3.0320736    1.0012683    1.9996145     0.193553 -0.0038278124   -3.0359014 
    9300            0   -3.0320642    1.0002182    1.9999516   0.19509571 -0.0038401669   -3.0359044 
    9350            0   -3.0320467   0.99918152     2.000348   0.19580485 -0.0038595768   -3.0359063 
    9400            0   -3.0320556   0.99907439    2.0000197    0.1951012 -0.003852523   -3.0359081 
    9450            0    -3.032047   0.99947239     1.999925   0.19365507 -0.0038626394   -3.0359096 
    9500            0   -3.0320421   0.99950607    2.0000483   0.19360987 -0.0038683744   -3.0359105 
    9550            0   -3.0320562   0.99915487    1.9996282   0.19430942 -0.003855031   -3.0359112 
    9600            0   -3.0320765   0.99873563    1.9987439   0.19519215 -0.0038352531   -3.0359118 
    9650            0   -3.0320534   0.99927678    1.9999125   0.19582823 -0.0038587385   -3.0359122 
    9700            0   -3.0320637   0.99909364    1.9989138   0.19611281 -0.0038486758   -3.0359124 
    9750            0   -3.0320486   0.99927601    1.9995418   0.19592831 -0.0038639056   -3.0359125 
    9800            0   -3.0320607   0.99910201    1.9989576     0.195777 -0.0038519308   -3.0359126 
    9850            0   -3.0320599   0.99913919    1.9992575   0.19587029 -0.0038527835   -3.0359127 
    9900            0   -3.0320596   0.99913844    1.9992774   0.19579923 -0.0038532061   -3.0359128 
    9950            0   -3.0320593   0.99922361    1.9992478   0.19570476 -0.0038535036   -3.0359128 
   10000            0   -3.0320582   0.99922657     1.999318   0.19574788 -0.0038546903   -3.0359129 
   10050            0   -3.0320592   0.99928705    1.9992317    0.1958034 -0.0038536952   -3.0359129 
   10100            0   -3.0320593    0.9992565    1.9992296   0.19581867 -0.0038535797   -3.0359129 
   10150            0    -3.032059   0.99922128    1.9992651      0.19582 -0.0038538817   -3.0359129 
   10200            0   -3.0320598   0.99921798    1.9992384   0.19577627 -0.0038530497   -3.0359129 
   10250            0   -3.0320597   0.99921657    1.9992547   0.19573994 -0.0038532059   -3.0359129 
   10300            0   -3.0320597   0.99921723    1.9992457   0.19572863 -0.0038531722   -3.0359129 
   10350            0   -3.0320598   0.99921518    1.9992462   0.19572038 -0.0038530889   -3.0359129 
   10400            0     -3.03206   0.99921626    1.9992368   0.19572294 -0.0038528999   -3.0359129 
   10450            0   -3.0320603   0.99921636    1.9992281   0.19572742 -0.0038526185   -3.0359129 
   10500            0     -3.03206   0.99921454    1.9992355   0.19571729 -0.0038528467   -3.0359129 
   10550            0   -3.0320601   0.99921424    1.9992314   0.19569798 -0.0038528132   -3.0359129 
   10564            0   -3.0320603   0.99921464    1.9992176   0.19569268 -0.0038525398   -3.0359129 
Loop time of 0.686253 on 8 procs for 4736 steps with 800 atoms

100.0% CPU use with 8 MPI tasks x no OpenMP threads

Minimization stats:
  Stopping criterion = force tolerance
  Energy initial, next-to-last, final = 
        -3.02421118923     -3.03591287036     -3.03591287036
  Force two-norm initial, final = 32.8368 0.00991611
  Force max component initial, final = 24.1007 0.00468193
  Final line search alpha, max atom move = 0.137768 0.000645018
  Iterations, force evaluations = 4736 9464

MPI task timing breakdown:
Section |  min time  |  avg time  |  max time  |%varavg| %total
---------------------------------------------------------------
Pair    | 0.18811    | 0.21522    | 0.25611    |   4.8 | 31.36
Neigh   | 0.00057514 | 0.00063487 | 0.00074119 |   0.0 |  0.09
Comm    | 0.13732    | 0.16722    | 0.19869    |   5.2 | 24.37
Output  | 0.0046048  | 0.0046413  | 0.0048631  |   0.1 |  0.68
Modify  | 0.0060544  | 0.0067387  | 0.0079907  |   0.8 |  0.98
Other   |            | 0.2918     |            |       | 42.52

Nlocal:    100 ave 104 max 97 min
Histogram: 3 0 0 0 2 1 0 0 0 2
Nghost:    146 ave 154 max 136 min
Histogram: 1 0 1 0 0 2 1 2 0 1
Neighs:    908.625 ave 942 max 862 min
Histogram: 1 0 0 0 1 3 1 0 0 2

Total # of neighbors = 7269
Ave neighs/atom = 9.08625
Neighbor list builds = 18
Dangerous builds = 0

# Final refinement uses nreset to eliminate stress offset

fix             3 all box/relax x 1.0 y 2.0 vmax 1.0e-3 nreset 100

minimize	0.0 1.0e-4 10000 100000
Per MPI rank memory allocation (min/avg/max) = 4.173 | 4.173 | 4.173 Mbytes
Step Temp PotEng Pxx Pyy Pxy f_3 v_emin 
   10564            0   -3.0320603   0.99921464    1.9992176   0.19569268 3.5527137e-17   -3.0320603 
   10600            0    -3.032042   0.99999915    2.0000167   0.19570231 -1.8334112e-05   -3.0320603 
   10650            0   -3.0320423    1.0000131    2.0000004   0.19570073 -1.7987496e-05   -3.0320603 
   10700            0   -3.0320423   0.99999944    1.9999969   0.19569515 -4.1995908e-07   -3.0320428 
   10750            0   -3.0320423    0.9999985    1.9999991   0.19569447 -4.3727452e-07   -3.0320428 
   10800            0   -3.0320424   0.99999763    1.9999938   0.19569202 6.8410376e-08   -3.0320424 
   10850            0   -3.0320423   0.99999991    1.9999999   0.19569226 -5.1717713e-08   -3.0320424 
   10900            0   -3.0320423    1.0000009    1.9999996   0.19569189 1.1355944e-08   -3.0320423 
   10950            0   -3.0320423   0.99999882    1.9999997   0.19569164 9.4365175e-09   -3.0320423 
   11000            0   -3.0320423    1.0000006    2.0000005   0.19569168 -3.6261406e-08   -3.0320423 
   11050            0   -3.0320423    1.0000002    2.0000001    0.1956921 -3.7869811e-08   -3.0320423 
   11100            0   -3.0320423    1.0000001    2.0000001    0.1956924 -4.5964751e-09   -3.0320423 
   11150            0   -3.0320423    1.0000001    2.0000002   0.19569294 -5.1507694e-09   -3.0320423 
   11200            0   -3.0320423    1.0000002    2.0000002   0.19569391 -4.3601312e-10   -3.0320423 
   11250            0   -3.0320423    1.0000001    2.0000002   0.19569489 -8.8931349e-10   -3.0320423 
   11300            0   -3.0320423    1.0000002    2.0000001   0.19569575 2.3568246e-09   -3.0320423 
   11350            0   -3.0320423    1.0000001    2.0000001   0.19569603 3.5686305e-09   -3.0320423 
   11400            0   -3.0320423    1.0000001    2.0000002   0.19569615 -3.0151465e-09   -3.0320423 
   11450            0   -3.0320423            1    2.0000002   0.19569632 -1.676681e-09   -3.0320423 
   11500            0   -3.0320423    1.0000001    2.0000001    0.1956962 -1.3678842e-09   -3.0320423 
   11550            0   -3.0320423    1.0000001    2.0000002   0.19569608 -6.2353212e-10   -3.0320423 
   11600            0   -3.0320423            1    2.0000002   0.19569568 1.7312286e-09   -3.0320423 
   11650            0   -3.0320423    1.0000002    2.0000001   0.19569535 5.9283708e-09   -3.0320423 
   11700            0   -3.0320423    1.0000001    2.0000002   0.19569493 1.0041161e-09   -3.0320423 
   11750            0   -3.0320423    1.0000001    2.0000002   0.19569476 5.4917504e-09   -3.0320423 
   11800            0   -3.0320423    1.0000001    2.0000002   0.19569469 -1.9509005e-09   -3.0320423 
   11850            0   -3.0320423    1.0000001            2   0.19569445 5.4873253e-10   -3.0320423 
   11900            0   -3.0320423    1.0000001    2.0000002   0.19569416 -1.3663354e-09   -3.0320423 
   11950            0   -3.0320423    1.0000001    2.0000002   0.19569373 -1.3097288e-09   -3.0320423 
   11990            0   -3.0320423    1.0000001            2   0.19569357 -6.2203647e-10   -3.0320423 
Loop time of 0.206553 on 8 procs for 1426 steps with 800 atoms

100.0% CPU use with 8 MPI tasks x no OpenMP threads

Minimization stats:
  Stopping criterion = force tolerance
  Energy initial, next-to-last, final = 
        -3.03206033052     -3.03204226598     -3.03204226598
  Force two-norm initial, final = 0.951527 9.96744e-05
  Force max component initial, final = 0.674086 5.4721e-05
  Final line search alpha, max atom move = 1 5.4721e-05
  Iterations, force evaluations = 1426 2852

MPI task timing breakdown:
Section |  min time  |  avg time  |  max time  |%varavg| %total
---------------------------------------------------------------
Pair    | 0.056819   | 0.065026   | 0.077624   |   2.7 | 31.48
Neigh   | 0          | 0          | 0          |   0.0 |  0.00
Comm    | 0.041192   | 0.050292   | 0.059988   |   2.9 | 24.35
Output  | 0.0013284  | 0.0013423  | 0.0014047  |   0.1 |  0.65
Modify  | 0.0018065  | 0.0020369  | 0.0024237  |   0.4 |  0.99
Other   |            | 0.08786    |            |       | 42.53

Nlocal:    100 ave 104 max 97 min
Histogram: 3 0 0 0 2 1 0 0 0 2
Nghost:    146 ave 154 max 136 min
Histogram: 1 0 1 0 1 1 1 2 0 1
Neighs:    908.25 ave 942 max 862 min
Histogram: 1 0 0 0 2 2 1 0 0 2

Total # of neighbors = 7266
Ave neighs/atom = 9.0825
Neighbor list builds = 0
Dangerous builds = 0

Total wall time: 0:00:01
