LAMMPS (2 Aug 2023 - Development - bc02a7cc6)
# REAX potential for high energy CHON systems
# .....

units		real

atom_style	charge
read_data	data.RDX
Reading data file ...
  orthogonal box = (0 0 0) to (25 25 25)
  2 by 2 by 2 MPI processor grid
  reading atoms ...
  105 atoms
  read_data CPU = 0.002 seconds

pair_style	reax/c lmp_control
WARNING: Ignoring inactive control parameter: simulation_name (src/REAXFF/reaxff_control.cpp:98)
WARNING: Ignoring inactive control parameter: energy_update_freq (src/REAXFF/reaxff_control.cpp:98)
WARNING: Support for writing native trajectories has been removed after LAMMPS version 8 April 2021 (src/REAXFF/reaxff_control.cpp:114)
WARNING: Ignoring inactive control parameter: traj_title (src/REAXFF/reaxff_control.cpp:98)
WARNING: Ignoring inactive control parameter: atom_info (src/REAXFF/reaxff_control.cpp:98)
WARNING: Ignoring inactive control parameter: atom_forces (src/REAXFF/reaxff_control.cpp:98)
WARNING: Ignoring inactive control parameter: atom_velocities (src/REAXFF/reaxff_control.cpp:98)
WARNING: Ignoring inactive control parameter: bond_info (src/REAXFF/reaxff_control.cpp:98)
WARNING: Ignoring inactive control parameter: angle_info (src/REAXFF/reaxff_control.cpp:98)
pair_coeff	* * ffield.reax.rdx H C O N
Reading potential file ffield.reax.rdx with DATE: 2010-02-19

neighbor	2 bin
neigh_modify	every 10 delay 0 check no

fix		1 all nve
fix             2 all qeq/reax 1 0.0 10.0 1e-6 param.qeq
fix             3 all temp/berendsen 500.0 500.0 100.0

timestep	0.25

#dump		1 all atom 30 dump.reax.rdx

run		3000

CITE-CITE-CITE-CITE-CITE-CITE-CITE-CITE-CITE-CITE-CITE-CITE-CITE

Your simulation uses code contributions which should be cited:

- pair reaxff command: doi:10.1016/j.parco.2011.08.005

@Article{Aktulga12,
 author = {H. M. Aktulga and J. C. Fogarty and S. A. Pandit and A. Y. Grama},
 title = {Parallel Reactive Molecular Dynamics: {N}umerical Methods and Algorithmic Techniques},
 journal = {Parallel Computing},
 year =    2012,
 volume =  38,
 number =  {4--5},
 pages =   {245--259}
}

- fix qeq/reaxff command: doi:10.1016/j.parco.2011.08.005

@Article{Aktulga12,
 author = {H. M. Aktulga and J. C. Fogarty and S. A. Pandit and A. Y. Grama},
 title = {Parallel Reactive Molecular Dynamics: {N}umerical Methods and Algorithmic Techniques},
 journal = {Parallel Computing},
 year =    2012,
 volume =  38,
 pages =   {245--259}
}

CITE-CITE-CITE-CITE-CITE-CITE-CITE-CITE-CITE-CITE-CITE-CITE-CITE

Neighbor list info ...
  update: every = 10 steps, delay = 0 steps, check = no
  max neighbors/atom: 2000, page size: 100000
  master list distance cutoff = 12
  ghost atom cutoff = 12
  binsize = 6, bins = 5 5 5
  2 neighbor lists, perpetual/occasional/extra = 2 0 0
  (1) pair reax/c, perpetual
      attributes: half, newton off, ghost
      pair build: half/bin/newtoff/ghost
      stencil: full/ghost/bin/3d
      bin: standard
  (2) fix qeq/reax, perpetual, copy from (1)
      attributes: half, newton off
      pair build: copy
      stencil: none
      bin: none
Per MPI rank memory allocation (min/avg/max) = 9.29 | 10.08 | 11.06 Mbytes
   Step          Temp          E_pair         E_mol          TotEng         Press     
         0   0             -10197.932      0             -10197.932      38.347492    
      3000   507.78653     -10090.631      0             -9933.2148      1584.4196    
Loop time of 8.23732 on 8 procs for 3000 steps with 105 atoms

Performance: 7.867 ns/day, 3.051 hours/ns, 364.196 timesteps/s, 38.241 katom-step/s
99.7% CPU use with 8 MPI tasks x no OpenMP threads

MPI task timing breakdown:
Section |  min time  |  avg time  |  max time  |%varavg| %total
---------------------------------------------------------------
Pair    | 2.9033     | 4.2474     | 5.7439     |  48.5 | 51.56
Neigh   | 0.12444    | 0.16705    | 0.21733    |   7.7 |  2.03
Comm    | 0.47335    | 1.9594     | 3.2307     |  69.8 | 23.79
Output  | 0.00010001 | 0.00012107 | 0.00025995 |   0.0 |  0.00
Modify  | 1.7614     | 1.8572     | 1.9581     |   4.4 | 22.55
Other   |            | 0.006183   |            |       |  0.08

Nlocal:         13.125 ave          40 max           0 min
Histogram: 3 1 1 0 1 0 0 1 0 1
Nghost:        309.375 ave         427 max         227 min
Histogram: 2 1 0 0 2 0 2 0 0 1
Neighs:            528 ave        1611 max           0 min
Histogram: 2 1 2 0 1 0 1 0 0 1

Total # of neighbors = 4224
Ave neighs/atom = 40.228571
Neighbor list builds = 300
Dangerous builds not checked
Total wall time: 0:00:08
