LAMMPS (30 Jul 2021)
# REAX potential for high energy CHON systems
# .....

units		real

atom_style	charge
read_data	data.RDX
Reading data file ...
  orthogonal box = (0.0000000 0.0000000 0.0000000) to (25.000000 25.000000 25.000000)
  2 by 2 by 2 MPI processor grid
  reading atoms ...
  105 atoms
  read_data CPU = 0.002 seconds

pair_style	reax/c lmp_control
WARNING: Ignoring inactive control parameter: simulation_name (src/REAXFF/reaxff_control.cpp:97)
WARNING: Ignoring inactive control parameter: energy_update_freq (src/REAXFF/reaxff_control.cpp:97)
WARNING: Support for writing native trajectories has been removed after LAMMPS version 8 April 2021 (src/REAXFF/reaxff_control.cpp:113)
WARNING: Ignoring inactive control parameter: traj_title (src/REAXFF/reaxff_control.cpp:97)
WARNING: Ignoring inactive control parameter: atom_info (src/REAXFF/reaxff_control.cpp:97)
WARNING: Ignoring inactive control parameter: atom_forces (src/REAXFF/reaxff_control.cpp:97)
WARNING: Ignoring inactive control parameter: atom_velocities (src/REAXFF/reaxff_control.cpp:97)
WARNING: Ignoring inactive control parameter: bond_info (src/REAXFF/reaxff_control.cpp:97)
WARNING: Ignoring inactive control parameter: angle_info (src/REAXFF/reaxff_control.cpp:97)
pair_coeff	* * ffield.reax.rdx H C O N
Reading potential file ffield.reax.rdx with DATE: 2010-02-19

neighbor	2 bin
neigh_modify	every 10 delay 0 check no

fix		1 all nve
fix             2 all qeq/reax 1 0.0 10.0 1e-6 param.qeq
fix             3 all temp/berendsen 500.0 500.0 100.0

timestep	0.25

#dump		1 all atom 30 dump.reax.rdx

run		3000

CITE-CITE-CITE-CITE-CITE-CITE-CITE-CITE-CITE-CITE-CITE-CITE-CITE

Your simulation uses code contributions which should be cited:

- pair reaxff command:

@Article{Aktulga12,
 author = {H. M. Aktulga, J. C. Fogarty, S. A. Pandit, A. Y. Grama},
 title = {Parallel reactive molecular dynamics: Numerical methods and algorithmic techniques},
 journal = {Parallel Computing},
 year =    2012,
 volume =  38,
 pages =   {245--259}
}

- fix qeq/reaxff command:

@Article{Aktulga12,
 author = {H. M. Aktulga, J. C. Fogarty, S. A. Pandit, A. Y. Grama},
 title = {Parallel reactive molecular dynamics: Numerical methods and algorithmic techniques},
 journal = {Parallel Computing},
 year =    2012,
 volume =  38,
 pages =   {245--259}
}

CITE-CITE-CITE-CITE-CITE-CITE-CITE-CITE-CITE-CITE-CITE-CITE-CITE

Neighbor list info ...
  update every 10 steps, delay 0 steps, check no
  max neighbors/atom: 2000, page size: 100000
  master list distance cutoff = 12
  ghost atom cutoff = 12
  binsize = 6, bins = 5 5 5
  2 neighbor lists, perpetual/occasional/extra = 2 0 0
  (1) pair reax/c, perpetual
      attributes: half, newton off, ghost
      pair build: half/bin/newtoff/ghost
      stencil: full/ghost/bin/3d
      bin: standard
  (2) fix qeq/reax, perpetual, copy from (1)
      attributes: half, newton off, ghost
      pair build: copy
      stencil: none
      bin: none
Per MPI rank memory allocation (min/avg/max) = 9.290 | 10.08 | 11.06 Mbytes
Step Temp E_pair E_mol TotEng Press 
       0            0   -10197.932            0   -10197.932    38.347492 
    3000    506.06723   -10090.047            0   -9933.1643    914.94284 
Loop time of 6.80253 on 8 procs for 3000 steps with 105 atoms

Performance: 9.526 ns/day, 2.519 hours/ns, 441.012 timesteps/s
99.8% CPU use with 8 MPI tasks x no OpenMP threads

MPI task timing breakdown:
Section |  min time  |  avg time  |  max time  |%varavg| %total
---------------------------------------------------------------
Pair    | 2.8647     | 4.067      | 5.0746     |  42.4 | 59.79
Neigh   | 0.095921   | 0.11696    | 0.14783    |   4.9 |  1.72
Comm    | 0.27704    | 1.2682     | 2.448      |  74.6 | 18.64
Output  | 7.009e-05  | 7.4733e-05 | 0.00010176 |   0.0 |  0.00
Modify  | 1.2876     | 1.348      | 1.3891     |   2.8 | 19.82
Other   |            | 0.002314   |            |       |  0.03

Nlocal:        13.1250 ave          40 max           0 min
Histogram: 3 1 1 0 1 0 0 1 0 1
Nghost:        309.375 ave         427 max         227 min
Histogram: 2 1 0 0 2 0 2 0 0 1
Neighs:        528.250 ave        1612 max           0 min
Histogram: 2 1 2 0 1 0 1 0 0 1

Total # of neighbors = 4226
Ave neighs/atom = 40.247619
Neighbor list builds = 300
Dangerous builds not checked
Total wall time: 0:00:06
