LAMMPS (4 Jan 2019)
# REAX potential for high energy CHON systems
# .....

units		real

atom_style	charge
read_data	data.RDX
  orthogonal box = (0 0 0) to (25 25 25)
  2 by 2 by 2 MPI processor grid
  reading atoms ...
  105 atoms

pair_style	reax/c lmp_control
pair_coeff	* * ffield.reax.rdx H C O N
Reading potential file ffield.reax.rdx with DATE: 2010-02-19

neighbor	2 bin
neigh_modify	every 10 delay 0 check no

fix		1 all nve
fix             2 all qeq/reax 1 0.0 10.0 1e-6 param.qeq
fix             3 all temp/berendsen 500.0 500.0 100.0

timestep	0.25

#dump		1 all atom 30 dump.reax.rdx

run		3000
Neighbor list info ...
  update every 10 steps, delay 0 steps, check no
  max neighbors/atom: 2000, page size: 100000
  master list distance cutoff = 12
  ghost atom cutoff = 12
  binsize = 6, bins = 5 5 5
  2 neighbor lists, perpetual/occasional/extra = 2 0 0
  (1) pair reax/c, perpetual
      attributes: half, newton off, ghost
      pair build: half/bin/newtoff/ghost
      stencil: half/ghost/bin/3d/newtoff
      bin: standard
  (2) fix qeq/reax, perpetual, copy from (1)
      attributes: half, newton off, ghost
      pair build: copy
      stencil: none
      bin: none
Per MPI rank memory allocation (min/avg/max) = 10.14 | 11.24 | 12.5 Mbytes
Step Temp E_pair E_mol TotEng Press 
       0            0   -10197.932            0   -10197.932    38.347492 
    3000    504.30429   -10089.644            0   -9933.3072    1974.9427 
Loop time of 8.50888 on 8 procs for 3000 steps with 105 atoms

Performance: 7.616 ns/day, 3.151 hours/ns, 352.573 timesteps/s
99.7% CPU use with 8 MPI tasks x no OpenMP threads

MPI task timing breakdown:
Section |  min time  |  avg time  |  max time  |%varavg| %total
---------------------------------------------------------------
Pair    | 6.6848     | 6.7889     | 6.9215     |   3.2 | 79.79
Neigh   | 0.090586   | 0.10853    | 0.13602    |   4.6 |  1.28
Comm    | 0.090778   | 0.22797    | 0.343      |  18.2 |  2.68
Output  | 3.6901e-05 | 3.9741e-05 | 5.2902e-05 |   0.0 |  0.00
Modify  | 1.3316     | 1.3814     | 1.403      |   1.9 | 16.23
Other   |            | 0.002013   |            |       |  0.02

Nlocal:    13.125 ave 40 max 0 min
Histogram: 3 1 1 0 1 0 0 1 0 1
Nghost:    309.375 ave 427 max 227 min
Histogram: 2 1 0 0 2 0 2 0 0 1
Neighs:    527.875 ave 1610 max 0 min
Histogram: 2 1 2 0 1 0 1 0 0 1

Total # of neighbors = 4223
Ave neighs/atom = 40.219
Neighbor list builds = 300
Dangerous builds not checked

Please see the log.cite file for references relevant to this simulation

Total wall time: 0:00:08
