LAMMPS data file via write_data, version 15 Jul 2016, timestep = 0

4500 atoms
2 atom types
3000 bonds
1 bond types
1500 angles
1 angle types

2.6450000000000001e-02 3.5532800000000002e+01 xlo xhi
2.6450000000000001e-02 3.5532800000000002e+01 ylo yhi
2.6409999999999999e-02 3.5473599999999998e+01 zlo zhi

Masses

1 15.9994
2 1.00794

Pair Coeffs # lj/cut/coul/long

1 0.15535 3.166
2 0 0

Bond Coeffs # harmonic

1 1000 1

Angle Coeffs # harmonic

1 100 109.47

Atoms # full

340 114 1 -8.4719999999999995e-01 3.7157561729433577e+00 3.9618691788206695e-01 6.8023708708933062e-01 0 1 0
341 114 2 4.2359999999999998e-01 4.4426450986222425e+00 3.6010094089073508e-01 1.3660433950150235e+00 0 1 0
2050 684 1 -8.4719999999999995e-01 6.8296705360099674e-01 1.5321860727589733e+00 3.1177232024162804e+00 0 0 0
2051 684 2 4.2359999999999998e-01 1.2416788826847769e+00 1.4682104558066003e+00 3.9446138919741971e+00 0 0 0
2052 684 2 4.2359999999999998e-01 9.6791794744900628e-01 8.2781266784204421e-01 2.4675992953484811e+00 0 0 0
4405 1469 1 -8.4719999999999995e-01 2.1609632821033635e+00 2.7411233654329883e+00 1.0294495667995125e+00 0 0 0
4406 1469 2 4.2359999999999998e-01 2.7998505293238112e+00 2.0088480784113005e+00 7.9366154895413621e-01 0 0 0
4407 1469 2 4.2359999999999998e-01 1.2698220923012835e+00 2.3466307107595172e+00 1.2535989037351269e+00 0 0 0
379 127 1 -8.4719999999999995e-01 7.2023992509703643e+00 3.2809970129107753e+00 8.8810206539247527e-01 0 1 0
853 285 1 -8.4719999999999995e-01 4.9625393738239749e+00 4.8737938246521291e-02 3.0677269566890160e+00 1 1 0
855 285 2 4.2359999999999998e-01 4.4624626201303332e+00 4.9760409701371316e-01 3.8082959351973256e+00 1 1 0
2932 978 1 -8.4719999999999995e-01 7.6326342432217986e+00 8.9141309799170432e-01 2.8971727042617728e+00 0 1 0
2933 978 2 4.2359999999999998e-01 7.5064403238638109e+00 1.5475225095470821e+00 2.1531326953972183e+00 0 1 0
2934 978 2 4.2359999999999998e-01 6.7657773482394648e+00 4.2954646149511866e-01 3.0848914665705638e+00 0 1 0
2256 752 2 4.2359999999999998e-01 8.6428801113450771e+00 3.6855153258136070e-02 1.6202907501395472e+00 0 1 0
3290 1097 2 4.2359999999999998e-01 7.5936313099517454e+00 1.0712426638770708e-01 5.1232104369556861e+00 1 1 0
3163 1055 1 -8.4719999999999995e-01 4.9079479283257115e+00 5.8123429152992641e+00 5.2292718571371966e-01 1 1 0
3165 1055 2 4.2359999999999998e-01 5.1884861744227990e+00 5.0567452704136162e+00 1.1148482036885046e+00 1 1 0
381 127 2 4.2359999999999998e-01 7.4394516392565899e+00 4.2245346824545251e+00 1.1194953050696883e+00 0 1 0
1792 598 1 -8.4719999999999995e-01 7.9379946257717302e+00 5.7229633116034613e+00 1.9392549804791563e+00 0 0 0
1793 598 2 4.2359999999999998e-01 8.6524266860687753e+00 5.6694871475688196e+00 2.6369133002174472e+00 0 0 0
4108 1370 1 -8.4719999999999995e-01 5.4524502023665873e+00 4.2479130449351921e+00 2.8674656803412879e+00 1 1 0
4110 1370 2 4.2359999999999998e-01 6.0143755909968259e+00 3.8014504017620490e+00 2.1711101921984866e+00 1 1 0
4230 1410 2 4.2359999999999998e-01 3.7805789018196525e+00 6.2400435947018247e+00 2.6069895783410235e+00 0 1 0
1794 598 2 4.2359999999999998e-01 7.3596470558248566e+00 6.5196396749130487e+00 2.1148136899771290e+00 0 0 0
2452 818 1 -8.4719999999999995e-01 6.7931277206111789e+00 7.8768131889061683e+00 3.1749892893987943e+00 0 0 0
2454 818 2 4.2359999999999998e-01 7.0879928877341261e+00 8.6034235871078160e+00 2.5544315866482967e+00 0 0 0
1463 488 2 4.2359999999999998e-01 1.9173229975666513e+00 4.4919938733701938e+00 1.9090209742459703e+00 0 1 0
2189 730 2 4.2359999999999998e-01 1.4470829444119060e+00 7.6130005589486736e+00 4.2872392881942343e+00 1 0 0
2139 713 2 4.2359999999999998e-01 3.2130853186025323e+00 8.4266102214340357e+00 1.5405991588362951e+00 0 1 0
2188 730 1 -8.4719999999999995e-01 6.5376026412969124e-01 7.1138867040984604e+00 3.9386356667981235e+00 1 0 0
2190 730 2 4.2359999999999998e-01 9.6324440909658049e-01 6.3254734430706323e+00 3.4070116512954152e+00 1 0 0
4228 1410 1 -8.4719999999999995e-01 4.0088209346648087e+00 7.1491340631261950e+00 2.9555008330596504e+00 0 1 0
4229 1410 2 4.2359999999999998e-01 4.9962784338586186e+00 7.2124073180937867e+00 3.1001527687440191e+00 0 1 0
3046 1016 1 -8.4719999999999995e-01 2.4533522105332763e+00 1.1088955945278658e+00 5.1423304334769835e+00 1 1 0
3048 1016 2 4.2359999999999998e-01 2.8521753435643142e+00 1.9747665570607071e+00 4.8403244984319871e+00 1 1 0
2225 742 2 4.2359999999999998e-01 5.0611994551663448e+00 5.5832913910016901e-01 6.8736673760812046e+00 0 1 0
3047 1016 2 4.2359999999999998e-01 3.1228370352777217e+00 6.0639351346683557e-01 5.6893969083835580e+00 1 1 0
3331 1111 1 -8.4719999999999995e-01 8.0102830152319804e+00 1.2345683350460797e+00 7.4569678250705502e+00 1 0 0
3333 1111 2 4.2359999999999998e-01 8.2465207818901387e+00 2.6288302708576289e-01 7.4525655642186752e+00 1 0 0
679 227 1 -8.4719999999999995e-01 3.4898266017639776e-02 8.9869906631174190e-01 7.6982703584190775e+00 1 0 0
396 132 2 4.2359999999999998e-01 7.1926304115037276e-01 8.3856214664731343e+00 8.5058858701033522e+00 1 1 0
1093 365 1 -8.4719999999999995e-01 3.8556026063258839e+00 7.8432610073477802e+00 6.9257994263651481e+00 1 1 0
1094 365 2 4.2359999999999998e-01 3.7205119855426383e+00 8.2051656386462213e+00 6.0034244689746137e+00 1 1 0
1095 365 2 4.2359999999999998e-01 3.0706823087549040e+00 8.0841668078494635e+00 7.4966448710748104e+00 1 1 0
1464 488 2 4.2359999999999998e-01 2.0940097937062729e+00 4.2161578813607132e+00 3.5088093279723434e+00 0 1 0
3330 1110 2 4.2359999999999998e-01 4.2232053751241354e+00 6.1530829882217510e+00 7.0650896450100920e+00 0 1 0
4264 1422 1 -8.4719999999999995e-01 3.5444683991372052e+00 3.4930231601666186e+00 4.9289377957785119e+00 0 1 0
4265 1422 2 4.2359999999999998e-01 4.1470403583151061e+00 3.7552711432892618e+00 4.1751917978644135e+00 0 1 0
4266 1422 2 4.2359999999999998e-01 3.7139663586900609e+00 4.0888565347834378e+00 5.7139556499765503e+00 0 1 0
121 41 1 -8.4719999999999995e-01 6.5019741112109406e+00 5.5236409001171269e+00 5.0584782355927338e+00 1 1 0
122 41 2 4.2359999999999998e-01 7.1140416917209555e+00 6.3135142155218338e+00 5.0968634216032909e+00 1 1 0
123 41 2 4.2359999999999998e-01 5.9457777459768488e+00 5.4922930568632022e+00 5.8889376963923947e+00 1 1 0
169 57 1 -8.4719999999999995e-01 8.6975807344030702e+00 6.4012982938700453e+00 8.7648312252871499e+00 0 0 0
171 57 2 4.2359999999999998e-01 7.7735914076485724e+00 6.7828607019677865e+00 8.7392606802777610e+00 0 0 0
2502 834 2 4.2359999999999998e-01 7.8868389303343092e+00 7.8244119477418055e+00 6.7864856764254649e+00 0 0 0
2878 960 1 -8.4719999999999995e-01 6.5108715012964149e+00 7.9510614318721444e+00 8.0691196160546905e+00 0 1 0
2879 960 2 4.2359999999999998e-01 6.4302561615815641e+00 8.6390860165461572e+00 8.7903153855173990e+00 0 1 0
2880 960 2 4.2359999999999998e-01 5.6606903567358406e+00 7.9177655523095183e+00 7.5436832204333246e+00 0 1 0
3328 1110 1 -8.4719999999999995e-01 4.6329743715432885e+00 5.2426483789632083e+00 7.0085370867760890e+00 0 1 0
3329 1110 2 4.2359999999999998e-01 4.7755707945887087e+00 4.8834354025689830e+00 7.9308343803466430e+00 0 1 0
4109 1370 2 4.2359999999999998e-01 6.0368362683226664e+00 4.7944781600530106e+00 3.4672652309095229e+00 1 1 0
2453 818 2 4.2359999999999998e-01 7.0483121657478778e+00 8.1148807576939692e+00 4.1121150715923465e+00 0 0 0
1462 488 1 -8.4719999999999995e-01 1.6943351810464145e+00 4.8263098348321636e+00 2.8247224930810253e+00 0 1 0
3391 1131 1 -8.4719999999999995e-01 2.7939614237334420e+00 8.7962199193799844e+00 4.5804103192452361e+00 0 0 0
3393 1131 2 4.2359999999999998e-01 3.2044473500866917e+00 8.1019290159765678e+00 3.9892576776047659e+00 0 0 0
2500 834 1 -8.4719999999999995e-01 8.0162460126650714e+00 7.8631039093114632e+00 5.7956492927815333e+00 0 0 0
2501 834 2 4.2359999999999998e-01 8.4506325526143602e+00 8.7296362067111293e+00 5.5498239249403358e+00 0 0 0
298 100 1 -8.4719999999999995e-01 2.7320508587043104e+00 1.6615572920925119e+00 8.8609641231759575e+00 1 0 0
300 100 2 4.2359999999999998e-01 1.9010646925147343e+00 1.5298971408003847e+00 8.3204758289715919e+00 1 0 0
3035 1012 2 4.2359999999999998e-01 4.4172406612665371e+00 1.3398088348651980e+00 8.4797214084252275e+00 0 1 0
3138 1046 2 4.2359999999999998e-01 8.8375367022602003e+00 2.8386089390755891e+00 8.3151576951889030e+00 -1 0 0
3332 1111 2 4.2359999999999998e-01 7.0464182424725292e+00 1.3421537342745735e+00 7.7006686287383506e+00 1 0 0
394 132 1 -8.4719999999999995e-01 1.7132338645417733e+00 8.4854726494055708e+00 8.5511820455919985e+00 1 1 0
3034 1012 1 -8.4719999999999995e-01 5.3772137503553106e+00 1.0600905103100251e+00 8.4941895504499829e+00 0 1 0
88 30 1 -8.4719999999999995e-01 1.1608039953996485e+01 1.0779275505862258e+00 4.5799641136278391e+00 1 1 0
90 30 2 4.2359999999999998e-01 1.0794469086735324e+01 1.6497524105211974e+00 4.6854097086250581e+00 1 1 0
439 147 1 -8.4719999999999995e-01 1.3911087236973904e+01 4.2387481897543609e+00 4.4918308313993842e+00 1 0 0
3980 1327 2 4.2359999999999998e-01 1.2541118013043222e+01 7.4444974845285417e-01 2.7010122101492517e+00 0 0 0
3981 1327 2 4.2359999999999998e-01 1.1964987096963291e+01 1.6554644012791280e+00 1.4743288911914922e+00 0 0 0
4423 1475 1 -8.4719999999999995e-01 1.0234817735272603e+01 2.8593434641991982e+00 8.3082584413164062e-01 1 1 0
4425 1475 2 4.2359999999999998e-01 9.2726744068593074e+00 2.7481249786952118e+00 1.0796443805641338e+00 1 1 0
440 147 2 4.2359999999999998e-01 1.4233405703777766e+01 3.3686526188022139e+00 4.1189441148558421e+00 1 0 0
463 155 1 -8.4719999999999995e-01 1.5152485167037906e+01 2.1576344845560427e+00 3.2199380588964113e+00 0 0 0
464 155 2 4.2359999999999998e-01 1.4382629428385226e+01 1.5837842220447942e+00 2.9406210027033843e+00 0 0 0
465 155 2 4.2359999999999998e-01 1.5913253774263232e+01 1.5768491514681224e+00 3.5096267247644772e+00 0 0 0
3058 1020 1 -8.4719999999999995e-01 1.6821227067943557e+01 3.1442791257461384e+00 5.1938256532018306e-02 0 0 0
3059 1020 2 4.2359999999999998e-01 1.7221889987555659e+01 3.5510046060618614e+00 8.7293984514809952e-01 0 0 0
3162 1054 2 4.2359999999999998e-01 1.3833589517689045e+01 2.1014474898167244e+00 5.6881330337762825e-01 0 0 0
3847 1283 1 -8.4719999999999995e-01 1.7736037291303234e+01 4.5924406913189380e+00 2.1415683755914268e+00 -1 0 0
441 147 2 4.2359999999999998e-01 1.3314429169169681e+01 4.6862717800870399e+00 3.8257063788946337e+00 1 0 0
718 240 1 -8.4719999999999995e-01 1.1030555374509738e+01 8.7531440693437972e+00 2.1776641392995741e+00 0 0 0
720 240 2 4.2359999999999998e-01 1.1150610084234795e+01 8.3023524484117495e+00 1.2931451846274507e+00 0 0 0
1273 425 1 -8.4719999999999995e-01 1.1582426823659473e+01 4.4435837982723703e+00 2.4149880522981086e+00 0 -1 0
1274 425 2 4.2359999999999998e-01 1.0900842725666603e+01 4.9721363409923640e+00 2.9210269114260257e+00 0 -1 0
1275 425 2 4.2359999999999998e-01 1.1119759381625739e+01 3.8109330258684677e+00 1.7939471210715809e+00 0 -1 0
37 13 1 -8.4719999999999995e-01 1.4143142126149758e+01 5.4847104640967075e+00 1.5131676362653237e+00 0 0 0
38 13 2 4.2359999999999998e-01 1.4358060738333959e+01 4.5111475009229620e+00 1.4358039052652187e+00 0 0 0
39 13 2 4.2359999999999998e-01 1.3151272293844983e+01 5.6047600655958272e+00 1.5553852741066982e+00 0 0 0
68 23 2 4.2359999999999998e-01 1.7270254974184883e+01 7.8275775177553912e+00 3.1482426707773170e+00 1 0 0
817 273 1 -8.4719999999999995e-01 1.5618810170991777e+01 7.6889096751544184e+00 2.3283700821658613e+00 0 0 0
818 273 2 4.2359999999999998e-01 1.6272146387796571e+01 7.8924935911650209e+00 1.5991887762116335e+00 0 0 0
819 273 2 4.2359999999999998e-01 1.4951771167859066e+01 7.0196788763497997e+00 2.0009726077846421e+00 0 0 0
3848 1283 2 4.2359999999999998e-01 1.6769843126505329e+01 4.8292511277881109e+00 2.2434980233427040e+00 -1 0 0
719 240 2 4.2359999999999998e-01 1.0055380633859375e+01 8.8875880875447830e+00 2.3536159257875116e+00 0 0 0
883 295 1 -8.4719999999999995e-01 1.2689921340690015e+01 7.3175089410963539e+00 4.9366661686435709e+00 0 0 0
885 295 2 4.2359999999999998e-01 1.1721593292696786e+01 7.4251809042285313e+00 5.1619383147799729e+00 0 0 0
884 295 2 4.2359999999999998e-01 1.2847747233999822e+01 7.6127392448872993e+00 3.9943657626559248e+00 0 0 0
3979 1327 1 -8.4719999999999995e-01 1.2770475864408532e+01 1.1830173619271891e+00 1.8320741085364260e+00 0 0 0
89 30 2 4.2359999999999998e-01 1.2348071408811650e+01 1.4438627920806555e+00 5.1442732885635181e+00 1 1 0
303 101 2 4.2359999999999998e-01 1.2030331500095844e+01 3.4279494309934075e+00 8.6517014458524901e+00 0 0 0
405 135 2 4.2359999999999998e-01 9.3857494270538737e+00 4.6320157337423717e+00 4.5755363813710925e+00 1 1 0
849 283 2 4.2359999999999998e-01 1.4258995250123370e+01 4.2645885606791202e-02 7.4793022341620974e+00 0 1 0
3766 1256 1 -8.4719999999999995e-01 9.6997311787866085e+00 2.6090570102505750e+00 5.4922821646000513e+00 -1 0 0
3767 1256 2 4.2359999999999998e-01 9.0352701200381134e+00 2.1952636169700179e+00 6.1145895878930627e+00 -1 0 0
3768 1256 2 4.2359999999999998e-01 1.0462614496851874e+01 2.9828730731433444e+00 6.0197957607679715e+00 -1 0 0
1621 541 1 -8.4719999999999995e-01 1.6769717098873791e+01 2.9431334034472650e-01 4.3402835063039173e+00 0 0 0
1623 541 2 4.2359999999999998e-01 1.7688167861069672e+01 5.0697475680835424e-01 4.0067819030551473e+00 0 0 0
1753 585 1 -8.4719999999999995e-01 1.6696831349744755e+01 2.2569012533501547e+00 6.5839634011671277e+00 0 0 0
1754 585 2 4.2359999999999998e-01 1.6094066151957527e+01 1.8153368940104682e+00 7.2485648102067923e+00 0 0 0
1755 585 2 4.2359999999999998e-01 1.6843910018130721e+01 1.6433081122953423e+00 5.8081597387909314e+00 0 0 0
2581 861 1 -8.4719999999999995e-01 1.5376020197901676e+01 4.8027567408392979e+00 6.7099363607239084e+00 0 1 0
2582 861 2 4.2359999999999998e-01 1.5870428186203169e+01 3.9356262521540772e+00 6.6495587432121139e+00 0 1 0
2583 861 2 4.2359999999999998e-01 1.4882129680048818e+01 4.9650245312487655e+00 5.8556873802908580e+00 0 1 0
3601 1201 1 -8.4719999999999995e-01 1.5149945902477883e+01 1.1981873770436273e+00 8.7851289596165607e+00 0 1 0
403 135 1 -8.4719999999999995e-01 9.6584780757740365e+00 5.5632233574803420e+00 4.3337276849547797e+00 1 1 0
404 135 2 4.2359999999999998e-01 9.5126768643065045e+00 6.1673069441942099e+00 5.1171975484472405e+00 1 1 0
1528 510 1 -8.4719999999999995e-01 1.2228465230224948e+01 4.1324460283458198e+00 6.5734397614981104e+00 1 1 0
1529 510 2 4.2359999999999998e-01 1.2949508191068608e+01 4.0600458589876975e+00 5.8843423343517820e+00 1 1 0
1530 510 2 4.2359999999999998e-01 1.1624599097258644e+01 4.8961078759058596e+00 6.3450403831244575e+00 1 1 0
4051 1351 1 -8.4719999999999995e-01 1.0665653226290733e+01 6.4450092889892803e+00 7.0094584068862016e+00 0 1 0
4052 1351 2 4.2359999999999998e-01 1.1550991564705560e+01 6.5836910895141205e+00 7.4532414448010158e+00 0 1 0
4053 1351 2 4.2359999999999998e-01 9.9350520284398289e+00 6.7486516111530808e+00 7.6210327931197632e+00 0 1 0
554 185 2 4.2359999999999998e-01 1.4761446783879911e+01 4.5544411686827324e+00 8.2941342606308943e+00 0 0 0
4066 1356 1 -8.4719999999999995e-01 1.7424688296198489e+01 6.6163348206418480e+00 6.3056191502221735e+00 -1 1 0
4068 1356 2 4.2359999999999998e-01 1.6652803623624038e+01 6.0673261908508893e+00 6.6262179285440599e+00 -1 1 0
4390 1464 1 -8.4719999999999995e-01 1.4890842046289807e+01 8.4153718703706648e+00 6.3407649778160646e+00 0 1 0
4391 1464 2 4.2359999999999998e-01 1.4030121243222178e+01 7.9196058973163819e+00 6.2251111878581380e+00 0 1 0
4392 1464 2 4.2359999999999998e-01 1.5657658731680016e+01 7.7931390158806559e+00 6.1832262657396297e+00 0 1 0
1885 629 1 -8.4719999999999995e-01 1.1471665985648114e+01 3.4468533238832394e-01 8.7488444763418762e+00 1 1 0
2432 811 2 4.2359999999999998e-01 1.2781024852788905e+01 8.2495797645387281e+00 8.6834493664147594e+00 0 0 0
2392 798 1 -8.4719999999999995e-01 1.7345051522880492e+01 7.9129649912004343e+00 1.8561947916192673e-01 0 0 1
1268 423 2 4.2359999999999998e-01 2.7358458014158451e+00 1.1925309384049562e+01 2.8105305221282624e+00 0 1 0
1269 423 2 4.2359999999999998e-01 3.6750655514332817e+00 1.0621035491796897e+01 2.5218050984090348e+00 0 1 0
2137 713 1 -8.4719999999999995e-01 3.2960229854212915e+00 9.3659075835761456e+00 1.2076700238881439e+00 0 1 0
2138 713 2 4.2359999999999998e-01 4.0056001266310401e+00 9.4088193337371564e+00 5.0435013765424408e-01 0 1 0
3664 1222 1 -8.4719999999999995e-01 1.6326234560126867e+00 1.3509045100982700e+01 2.1782977296265491e+00 0 0 0
1477 493 1 -8.4719999999999995e-01 6.2733674816870035e+00 1.2956656457669368e+01 1.2950398084116328e+00 0 1 0
3259 1087 1 -8.4719999999999995e-01 5.5547022658966183e+00 1.2574056829050022e+01 3.8720028234939532e+00 0 0 0
3260 1087 2 4.2359999999999998e-01 6.0815855099353691e+00 1.2844971964720230e+01 3.0663980590951168e+00 0 0 0
3261 1087 2 4.2359999999999998e-01 4.7542151438620923e+00 1.2047768889192069e+01 3.5852252584358140e+00 0 0 0
1828 610 1 -8.4719999999999995e-01 8.0299176625766862e+00 9.8788371438221318e+00 1.8878102742073490e+00 1 -1 0
1829 610 2 4.2359999999999998e-01 8.4154006498955614e+00 1.0710017603493458e+01 2.2884870890448648e+00 1 -1 0
1830 610 2 4.2359999999999998e-01 7.7898197849689081e+00 1.0049818162612963e+01 9.3223793242385800e-01 1 -1 0
2786 929 2 4.2359999999999998e-01 1.8058563632124307e+00 1.7706241259531506e+01 5.9470029932758339e-01 0 0 0
2938 980 1 -8.4719999999999995e-01 3.3579552810311557e+00 1.4712807493832344e+01 3.3391644975649776e-01 0 0 0
3559 1187 1 -8.4719999999999995e-01 1.3570260617130865e+00 1.6236051544871728e+01 3.5617646171710979e+00 1 0 0
3561 1187 2 4.2359999999999998e-01 5.0531891085832448e-01 1.6218469288995280e+01 3.0380416050153500e+00 1 0 0
3665 1222 2 4.2359999999999998e-01 2.4813895942783817e+00 1.3731522671648067e+01 1.6986105679324841e+00 0 0 0
3666 1222 2 4.2359999999999998e-01 9.2348542578493742e-01 1.4166372052726716e+01 1.9232594332825874e+00 0 0 0
598 200 1 -8.4719999999999995e-01 5.4191647868088584e+00 1.5435512721712103e+01 4.2716267663583976e+00 0 0 0
599 200 2 4.2359999999999998e-01 5.0464310821745491e+00 1.5108436692683137e+01 3.4032427172966448e+00 0 0 0
600 200 2 4.2359999999999998e-01 4.6769370102842913e+00 1.5789253675760630e+01 4.8408062329465888e+00 0 0 0
2368 790 1 -8.4719999999999995e-01 8.1410994311041431e+00 1.5866974695562675e+01 4.1918732699906975e+00 0 1 0
2369 790 2 4.2359999999999998e-01 7.2813099328430164e+00 1.5365995486631842e+01 4.2907765100871966e+00 0 1 0
2370 790 2 4.2359999999999998e-01 8.0763239356518497e+00 1.6489495849504284e+01 3.4119556153082340e+00 0 1 0
3883 1295 1 -8.4719999999999995e-01 6.0728167207927255e+00 1.7020067405195149e+01 6.7665649381227801e+00 0 0 0
3885 1295 2 4.2359999999999998e-01 6.0775672026872112e+00 1.6801273532779348e+01 5.7908054009842331e+00 0 0 0
1969 657 1 -8.4719999999999995e-01 8.8006752807518911e+00 1.2268187955352721e+01 3.3702046594376052e+00 0 1 0
1970 657 2 4.2359999999999998e-01 8.4463773479366875e+00 1.2969306875898756e+01 2.7514112900037633e+00 0 1 0
1262 421 2 4.2359999999999998e-01 3.2956591725919244e+00 1.7746192816853757e+01 4.8967597371601155e+00 0 0 0
1267 423 1 -8.4719999999999995e-01 3.2254339750604442e+00 1.1162210411222610e+01 3.2324112847855280e+00 0 1 0
2920 974 1 -8.4719999999999995e-01 2.6851524073500013e+00 1.2946719647089317e+01 8.2227872675339384e+00 0 0 0
2921 974 2 4.2359999999999998e-01 2.3353543295400523e+00 1.2091361295987323e+01 7.8406833602505621e+00 0 0 0
3392 1131 2 4.2359999999999998e-01 2.8531293633422026e+00 9.6899338137374400e+00 4.1356917228769046e+00 0 0 0
3448 1150 1 -8.4719999999999995e-01 2.0306411710414789e+00 1.0781414044492662e+01 7.0928166043311949e+00 0 0 0
3449 1150 2 4.2359999999999998e-01 2.2202747801155711e+00 1.0576820419748719e+01 6.1325142857749890e+00 0 0 0
3450 1150 2 4.2359999999999998e-01 1.7275056613320843e+00 9.9493419432442369e+00 7.5573215893194439e+00 0 0 0
3777 1259 2 4.2359999999999998e-01 4.3177210728702269e+00 1.4127333492792314e+01 8.4399128315402141e+00 0 1 0
1966 656 1 -8.4719999999999995e-01 5.0346080113011089e+00 1.1550836920166045e+01 7.9452467920145358e+00 0 0 0
1967 656 2 4.2359999999999998e-01 5.7356981960746118e+00 1.1677889935310247e+01 7.2435844201021728e+00 0 0 0
1968 656 2 4.2359999999999998e-01 4.1847241050954818e+00 1.1987428683062486e+01 7.6501451509751028e+00 0 0 0
2089 697 1 -8.4719999999999995e-01 7.1337935295413377e+00 1.2181661538312623e+01 5.9337839438987556e+00 1 0 0
2090 697 2 4.2359999999999998e-01 7.7064676639706082e+00 1.1411953184683163e+01 5.6516609457068885e+00 1 0 0
2091 697 2 4.2359999999999998e-01 6.4563919496632387e+00 1.2371223378070274e+01 5.2230143550118706e+00 1 0 0
1126 376 1 -8.4719999999999995e-01 3.0988815848749622e+00 1.6128752397485151e+01 5.6325359101509047e+00 0 0 0
1127 376 2 4.2359999999999998e-01 2.8109333019198526e+00 1.5564878526862918e+01 6.4065721136793616e+00 0 0 0
1128 376 2 4.2359999999999998e-01 2.5047456305700369e+00 1.5947503501175783e+01 4.8488578478135276e+00 0 0 0
2130 710 2 4.2359999999999998e-01 7.4961424529486009e-02 1.2748523114780340e+01 6.1392185327156534e+00 0 0 0
3560 1187 2 4.2359999999999998e-01 2.0238559744218976e+00 1.6816390106553349e+01 3.0942766265850254e+00 1 0 0
3775 1259 1 -8.4719999999999995e-01 4.9322755293349774e+00 1.4885613897777148e+01 8.6574758050874010e+00 0 1 0
316 106 1 -8.4719999999999995e-01 8.7201892937352188e+00 1.7054339040849598e+01 7.7321882170532739e+00 1 0 0
318 106 2 4.2359999999999998e-01 7.7697389263249583e+00 1.7118226172325592e+01 7.4279473034313659e+00 1 0 0
2530 844 1 -8.4719999999999995e-01 7.6023826929147775e+00 1.4015438494072223e+01 8.1671702081233466e+00 0 1 0
2531 844 2 4.2359999999999998e-01 6.6741012997315803e+00 1.4385663397990495e+01 8.1321391420443234e+00 0 1 0
2532 844 2 4.2359999999999998e-01 7.6540664170950112e+00 1.3191352156953865e+01 7.6030687087172248e+00 0 1 0
3884 1295 2 4.2359999999999998e-01 5.6863688599428297e+00 1.6252763419317223e+01 7.2783291847269664e+00 0 0 0
1744 582 1 -8.4719999999999995e-01 4.6688161908150222e-01 1.2198790772525294e+01 4.5606869966167922e+00 0 0 0
1745 582 2 4.2359999999999998e-01 1.1993262866195948e+00 1.2612889033774241e+01 4.0202728600185811e+00 0 0 0
2129 710 2 4.2359999999999998e-01 3.2517204549254192e-01 1.2628900669791602e+01 7.7484766260458358e+00 0 0 0
3589 1197 1 -8.4719999999999995e-01 4.3849561222213723e-01 1.5801387456512595e+01 7.6913857463581357e+00 0 0 0
3590 1197 2 4.2359999999999998e-01 1.3498080358537621e+00 1.5826755137168362e+01 8.1023190101785847e+00 0 0 0
3591 1197 2 4.2359999999999998e-01 1.7683669018220974e-01 1.4851715785579415e+01 7.5191698180988782e+00 0 0 0
2734 912 1 -8.4719999999999995e-01 1.0638238918821457e+00 1.0581636559044256e+01 4.5409686180024722e-01 0 1 1
2736 912 2 4.2359999999999998e-01 1.7399917043299320e+00 1.0223258370484976e+01 1.0978065505377739e+00 0 1 1
1478 493 2 4.2359999999999998e-01 7.1753715899160762e+00 1.3336401876567072e+01 1.0896572250046161e+00 0 1 0
1479 493 2 4.2359999999999998e-01 5.7070881616435214e+00 1.2978388920815128e+01 4.7111297201179786e-01 0 1 0
1756 586 1 -8.4719999999999995e-01 8.8869234685725100e+00 1.3802874027423069e+01 6.2165123525909982e-01 0 0 1
840 280 2 4.2359999999999998e-01 1.2275823857831060e+01 1.3818628191517167e+01 1.3885664947004812e+00 0 0 1
2260 754 1 -8.4719999999999995e-01 1.5891762807528780e+01 1.2545827687608988e+01 3.2163595215853698e+00 0 1 0
2261 754 2 4.2359999999999998e-01 1.6102248377024164e+01 1.2468168210948923e+01 2.2418520404856759e+00 0 1 0
2262 754 2 4.2359999999999998e-01 1.5423603419997701e+01 1.1717208327835989e+01 3.5233069836631739e+00 0 1 0
4174 1392 1 -8.4719999999999995e-01 1.5169749547728603e+01 9.9408846994024920e+00 4.1326398300987108e+00 0 1 0
4175 1392 2 4.2359999999999998e-01 1.5438289830491112e+01 9.3455599017305993e+00 3.3753588374576720e+00 0 1 0
4176 1392 2 4.2359999999999998e-01 1.5112912609359254e+01 9.4042208704747772e+00 4.9745195704208438e+00 0 1 0
966 322 2 4.2359999999999998e-01 9.2582157578623594e+00 1.7723387990017013e+01 1.7005907707460273e+00 0 0 0
1555 519 1 -8.4719999999999995e-01 1.1208075338562869e+01 1.3174111952054108e+01 4.1324329619793225e+00 0 0 0
1557 519 2 4.2359999999999998e-01 1.1259715262621851e+01 1.3371827160702214e+01 3.1535345941548112e+00 0 0 0
1971 657 2 4.2359999999999998e-01 9.4922861660566547e+00 1.2671249849882388e+01 3.9695505466397547e+00 0 1 0
2162 721 2 4.2359999999999998e-01 1.0524329845004006e+01 1.4244391816366148e+01 5.2957050292689676e+00 0 0 0
2163 721 2 4.2359999999999998e-01 9.3281973811611429e+00 1.5354791781126671e+01 5.3496081120890304e+00 0 0 0
3073 1025 1 -8.4719999999999995e-01 1.3326402994518036e+01 1.5147141368255049e+01 7.9965712531537469e-01 1 0 0
3075 1025 2 4.2359999999999998e-01 1.4274649017287011e+01 1.5152897219525380e+01 4.8217271549318952e-01 1 0 0
240 80 2 4.2359999999999998e-01 1.6625180423850448e+01 1.1963660436373400e+01 4.6774392821342481e+00 0 0 0
505 169 1 -8.4719999999999995e-01 1.5728876589178741e+01 1.5096915725835339e+01 3.9269746034402901e+00 0 0 0
506 169 2 4.2359999999999998e-01 1.4806826320756995e+01 1.5483854881441831e+01 3.9169052255508934e+00 0 0 0
507 169 2 4.2359999999999998e-01 1.5753150152705567e+01 1.4278411089780501e+01 3.3529877090915376e+00 0 0 0
1556 519 2 4.2359999999999998e-01 1.1712148018931899e+01 1.2333279659693712e+01 4.3296936753609616e+00 0 0 0
2122 708 1 -8.4719999999999995e-01 1.3338855311637513e+01 1.6586545314491914e+01 3.8828718922028527e+00 -1 0 0
2123 708 2 4.2359999999999998e-01 1.2971314041806448e+01 1.6761780989898245e+01 2.9695231783777913e+00 -1 0 0
2124 708 2 4.2359999999999998e-01 1.3269837748579718e+01 1.7417444720285275e+01 4.4349975603735503e+00 -1 0 0
3796 1266 1 -8.4719999999999995e-01 1.2314331884319319e+01 1.7660725160539343e+01 1.5729847411357687e+00 0 0 0
3798 1266 2 4.2359999999999998e-01 1.1590529074176777e+01 1.7269852470275129e+01 1.0043653323595261e+00 0 0 0
1573 525 1 -8.4719999999999995e-01 1.7716104752667800e+01 1.6566081423761101e+01 2.7683816688510814e+00 1 0 0
1575 525 2 4.2359999999999998e-01 1.7304497650963683e+01 1.5762267917112862e+01 3.1978737413718075e+00 1 0 0
953 318 2 4.2359999999999998e-01 1.0029611729699587e+01 1.3503382873061852e+01 7.5105320971040870e+00 0 0 0
2446 816 1 -8.4719999999999995e-01 1.1802275002342975e+01 1.0606442077277514e+01 4.7533563437306583e+00 1 0 0
2447 816 2 4.2359999999999998e-01 1.2222016281851799e+01 1.0564015783489397e+01 5.6600080231930514e+00 1 0 0
2448 816 2 4.2359999999999998e-01 1.2372738112416346e+01 1.0110814593875535e+01 4.0984325025535959e+00 1 0 0
2749 917 1 -8.4719999999999995e-01 1.2762338630572716e+01 1.1349310117828656e+01 7.4603700976464777e+00 1 0 0
2750 917 2 4.2359999999999998e-01 1.3255166540347700e+01 1.2070905705181570e+01 7.9466009683856882e+00 1 0 0
2929 977 1 -8.4719999999999995e-01 9.1425307664991138e+00 1.0077787792515638e+01 5.0080172200246329e+00 0 1 0
2930 977 2 4.2359999999999998e-01 1.0125517691789934e+01 1.0024047748402813e+01 5.1836552351757810e+00 0 1 0
2931 977 2 4.2359999999999998e-01 8.9658106636627029e+00 1.0774112485279382e+01 4.3123866230112728e+00 0 1 0
4197 1399 2 4.2359999999999998e-01 1.3398842426882540e+01 1.4304670734578069e+01 7.6651449730625858e+00 0 0 0
1819 607 1 -8.4719999999999995e-01 1.6362045672871506e+01 1.0654484669936910e+01 7.8178922148195387e+00 0 1 0
1820 607 2 4.2359999999999998e-01 1.6828885121355274e+01 1.1054856926640994e+01 7.0293727252689173e+00 0 1 0
1821 607 2 4.2359999999999998e-01 1.5508311512763333e+01 1.0228281719977598e+01 7.5187450448338016e+00 0 1 0
2751 917 2 4.2359999999999998e-01 1.2763186438887322e+01 1.0515169434386511e+01 8.0119211845361384e+00 1 0 0
317 106 2 4.2359999999999998e-01 9.0064623977152518e+00 1.6096190978961943e+01 7.7322261459014987e+00 1 0 0
952 318 1 -8.4719999999999995e-01 1.0258654953286568e+01 1.2744732523335943e+01 8.1204409825867607e+00 0 0 0
954 318 2 4.2359999999999998e-01 1.1161460559816907e+01 1.2386574451498619e+01 7.8823972210724511e+00 0 0 0
2161 721 1 -8.4719999999999995e-01 9.9111447445971237e+00 1.4755370369076472e+01 5.8981209580999030e+00 0 0 0
3151 1051 1 -8.4719999999999995e-01 1.2706264599662365e+01 1.5295367400117467e+01 6.4660346771461770e+00 0 1 0
3152 1051 2 4.2359999999999998e-01 1.2997986479249972e+01 1.5528636902210517e+01 5.5384120791205769e+00 0 1 0
3153 1051 2 4.2359999999999998e-01 1.1714270226631688e+01 1.5398251142573049e+01 6.5392610345498694e+00 0 1 0
1155 385 2 4.2359999999999998e-01 1.7345648778212432e+01 1.4217285367837311e+01 7.9513598409727217e+00 1 1 0
3655 1219 1 -8.4719999999999995e-01 1.6089442053338310e+01 1.4704982121536634e+01 6.5013389517235556e+00 1 0 0
3656 1219 2 4.2359999999999998e-01 1.5341664789944470e+01 1.4147019017999593e+01 6.8612088441121024e+00 1 0 0
3657 1219 2 4.2359999999999998e-01 1.6054106202061558e+01 1.4705146016152003e+01 5.5019634713502290e+00 1 0 0
3955 1319 1 -8.4719999999999995e-01 1.5680770959697737e+01 1.7117471664174463e+01 7.3656636672987039e+00 1 0 0
3956 1319 2 4.2359999999999998e-01 1.6011100479146879e+01 1.6197957893049725e+01 7.1526452800814839e+00 1 0 0
238 80 1 -8.4719999999999995e-01 1.7301239558626555e+01 1.1846601983910652e+01 5.4049290518169126e+00 0 0 0
3837 1279 2 4.2359999999999998e-01 1.0146165638798289e+01 1.7689087894637680e+01 6.7855857456098088e+00 0 0 0
1584 528 2 4.2359999999999998e-01 1.6910061074329402e+01 1.7347112498397856e+01 5.7043440732997190e+00 0 0 0
3957 1319 2 4.2359999999999998e-01 1.4987306042055179e+01 1.7385746872888284e+01 6.6969822630495388e+00 1 0 0
2431 811 1 -8.4719999999999995e-01 1.2310516694231060e+01 9.1087088231967481e+00 8.8847435126297505e+00 0 0 0
4195 1399 1 -8.4719999999999995e-01 1.3867133996137524e+01 1.3718804014149887e+01 8.3265549760562116e+00 0 0 0
4044 1348 2 4.2359999999999998e-01 1.6274222241133728e+01 9.1693962052247020e+00 1.5132632092297943e-01 0 0 1