LAMMPS (4 Jan 2019)
# 250 butane system for drude polarizability example (Langevin)

units real
boundary p p p

atom_style full
bond_style harmonic
angle_style harmonic
dihedral_style opls
special_bonds lj/coul 0.0 0.0 0.5

pair_style hybrid/overlay lj/cut/coul/long 8.0 8.0 thole 2.089 8.0
pair_modify mix geometric tail yes
kspace_style pppm 1.0e-4

read_data data.butane
  orthogonal box = (-19.1 -19.0999 -19.1) to (19.1 19.1 19.1)
  2 by 2 by 2 MPI processor grid
  reading atoms ...
  4500 atoms
  scanning bonds ...
  5 = max bonds/atom
  scanning angles ...
  6 = max angles/atom
  scanning dihedrals ...
  9 = max dihedrals/atom
  reading bonds ...
  4250 bonds
  reading angles ...
  6000 angles
  reading dihedrals ...
  6750 dihedrals
  5 = max # of 1-2 neighbors
  8 = max # of 1-3 neighbors
  12 = max # of 1-4 neighbors
  17 = max # of special neighbors

comm_modify vel yes

group gBUTANE molecule 1:250
4500 atoms in group gBUTANE
group gCORES type 1 2 3
3500 atoms in group gCORES
group gDRUDES type 4 5
1000 atoms in group gDRUDES

pair_coeff    1    1 lj/cut/coul/long 0.065997 3.500000 # C3H C3H
pair_coeff    1    2 lj/cut/coul/long 0.065997 3.500000 # C3H C2H
pair_coeff    1    3 lj/cut/coul/long 0.044496 2.958040 # C3H H
pair_coeff    2    2 lj/cut/coul/long 0.065997 3.500000 # C2H C2H
pair_coeff    2    3 lj/cut/coul/long 0.044496 2.958040 # C2H H
pair_coeff    3    3 lj/cut/coul/long 0.029999 2.500000 # H H
pair_coeff    *  4*5 lj/cut/coul/long 0.000000 0.000000 # No lj for drudes
pair_coeff    1    * thole 1.368000
pair_coeff    2    * thole 1.368000
pair_coeff    4    * thole 1.368000
pair_coeff    5    * thole 1.368000

neighbor 2.0 bin

variable vTEMP   equal 260.0
variable vTEMP_D equal 1.0
variable vPRESS  equal 1.0

velocity gCORES  create ${vTEMP} 12345
velocity gCORES  create 260 12345
velocity gDRUDES create ${vTEMP_D} 12345
velocity gDRUDES create 1 12345

fix fDRUDE all drude C C N D D

fix fSHAKE gCORES shake 0.0001 20 0 b 2 4
  0 = # of size 2 clusters
  500 = # of size 3 clusters
  500 = # of size 4 clusters
  0 = # of frozen angles

fix fLANG all langevin/drude ${vTEMP} 100.0 200611 ${vTEMP_D} 20.0 260514 zero yes
fix fLANG all langevin/drude 260 100.0 200611 ${vTEMP_D} 20.0 260514 zero yes
fix fLANG all langevin/drude 260 100.0 200611 1 20.0 260514 zero yes
fix fNPH all nve

compute cTEMP all temp/drude

thermo_style custom step cpu etotal ke temp pe ebond eangle edihed eimp evdwl ecoul elong press vol c_cTEMP[1] c_cTEMP[2]
thermo 50

timestep 0.5
run 20
PPPM initialization ...
  using 12-bit tables for long-range coulomb (../kspace.cpp:321)
  G vector (1/distance) = 0.367867
  grid = 36 36 36
  stencil order = 5
  estimated absolute RMS force accuracy = 0.031354
  estimated relative force accuracy = 9.44215e-05
  using double precision FFTs
  3d grid and FFT values/proc = 15625 6480
Rebuild special list taking Drude particles into account
Old max number of 1-2 to 1-4 neighbors: 17
New max number of 1-2 to 1-4 neighbors: 17 (+0)
Neighbor list info ...
  update every 1 steps, delay 10 steps, check yes
  max neighbors/atom: 2000, page size: 100000
  master list distance cutoff = 10
  ghost atom cutoff = 10
  binsize = 5, bins = 8 8 8
  2 neighbor lists, perpetual/occasional/extra = 2 0 0
  (1) pair lj/cut/coul/long, perpetual
      attributes: half, newton on
      pair build: half/bin/newton
      stencil: half/bin/3d/newton
      bin: standard
  (2) pair thole, perpetual, skip from (1)
      attributes: half, newton on
      pair build: skip
      stencil: none
      bin: none
Per MPI rank memory allocation (min/avg/max) = 14.85 | 15.22 | 15.3 Mbytes
Step CPU TotEng KinEng Temp PotEng E_bond E_angle E_dihed E_impro E_vdwl E_coul E_long Press Volume c_cTEMP[1] c_cTEMP[2] 
       0            0    6535.5187      2714.74    248.45112    3820.7787    3724.3278    140.75328    1.4735401            0   -518.77975    595169.42   -594696.41    4439.7916    55742.797    334.61375    18.435655 
      20   0.16566067    4458.6392    2373.8446    217.25261    2084.7946    1501.8934    932.78881    55.662983            0   -740.30711    595140.13   -594805.37     8687.858    55742.797    168.99313    345.60456 
Loop time of 0.165742 on 8 procs for 20 steps with 4500 atoms

Performance: 5.213 ns/day, 4.604 hours/ns, 120.669 timesteps/s
98.6% CPU use with 8 MPI tasks x no OpenMP threads

MPI task timing breakdown:
Section |  min time  |  avg time  |  max time  |%varavg| %total
---------------------------------------------------------------
Pair    | 0.057502   | 0.066488   | 0.085213   |   3.1 | 40.12
Bond    | 0.0056132  | 0.0065807  | 0.0075928  |   0.7 |  3.97
Kspace  | 0.058043   | 0.07742    | 0.086716   |   2.9 | 46.71
Neigh   | 0          | 0          | 0          |   0.0 |  0.00
Comm    | 0.005816   | 0.0061852  | 0.0068602  |   0.4 |  3.73
Output  | 7.0428e-05 | 8.0062e-05 | 0.00011613 |   0.0 |  0.05
Modify  | 0.0087222  | 0.008768   | 0.008797   |   0.0 |  5.29
Other   |            | 0.0002203  |            |       |  0.13

Nlocal:    562.5 ave 614 max 463 min
Histogram: 1 0 0 1 1 0 1 0 1 3
Nghost:    4297.75 ave 4432 max 4210 min
Histogram: 1 2 1 1 0 1 1 0 0 1
Neighs:    114247 ave 145444 max 96205 min
Histogram: 1 1 1 2 2 0 0 0 0 1

Total # of neighbors = 913979
Ave neighs/atom = 203.106
Ave special neighs/atom = 13.3333
Neighbor list builds = 0
Dangerous builds = 0
Total wall time: 0:00:00
