LAMMPS (2 Aug 2023 - Development - bc02a7cc6)
# 250 butane system for drude polarizability example (Nose-Hoover)

units real
boundary p p p

atom_style full
bond_style harmonic
angle_style harmonic
dihedral_style opls
special_bonds lj/coul 0.0 0.0 0.5

pair_style hybrid/overlay lj/cut/coul/long 8.0 8.0 thole 2.089 8.0
pair_modify mix geometric tail yes
kspace_style pppm 1.0e-4

read_data data.butane
Reading data file ...
  orthogonal box = (-19.099988 -19.099913 -19.099998) to (19.099998 19.099999 19.099987)
  2 by 2 by 2 MPI processor grid
  reading atoms ...
  4500 atoms
  scanning bonds ...
  5 = max bonds/atom
  scanning angles ...
  6 = max angles/atom
  scanning dihedrals ...
  9 = max dihedrals/atom
  reading bonds ...
  4250 bonds
  reading angles ...
  6000 angles
  reading dihedrals ...
  6750 dihedrals
Finding 1-2 1-3 1-4 neighbors ...
  special bond factors lj:    0        0        0.5     
  special bond factors coul:  0        0        0.5     
     5 = max # of 1-2 neighbors
     8 = max # of 1-3 neighbors
    12 = max # of 1-4 neighbors
    17 = max # of special neighbors
  special bonds CPU = 0.002 seconds
  read_data CPU = 0.157 seconds

group gBUTANE molecule 1:250
4500 atoms in group gBUTANE
group gCORES type 1 2 3
3500 atoms in group gCORES
group gDRUDES type 4 5
1000 atoms in group gDRUDES

pair_coeff    1    1 lj/cut/coul/long 0.065997 3.500000 # C3H C3H
pair_coeff    1    2 lj/cut/coul/long 0.065997 3.500000 # C3H C2H
pair_coeff    1    3 lj/cut/coul/long 0.044496 2.958040 # C3H H
pair_coeff    2    2 lj/cut/coul/long 0.065997 3.500000 # C2H C2H
pair_coeff    2    3 lj/cut/coul/long 0.044496 2.958040 # C2H H
pair_coeff    3    3 lj/cut/coul/long 0.029999 2.500000 # H H
pair_coeff    *  4*5 lj/cut/coul/long 0.000000 0.000000 # No lj for drudes
pair_coeff    1    * thole 1.368000
pair_coeff    2    * thole 1.368000
pair_coeff    4    * thole 1.368000
pair_coeff    5    * thole 1.368000

neighbor 2.0 bin

variable vTEMP   equal 260.0
variable vTEMP_D equal 1.0
variable vPRESS  equal 1.0

velocity gCORES  create ${vTEMP} 12345
velocity gCORES  create 260 12345
velocity gDRUDES create ${vTEMP_D} 12345
velocity gDRUDES create 1 12345

fix fDRUDE all drude C C N D D

fix fSHAKE gCORES shake 0.0001 20 0 b 2 4
Finding SHAKE clusters ...
       0 = # of size 2 clusters
     500 = # of size 3 clusters
     500 = # of size 4 clusters
       0 = # of frozen angles
  find clusters CPU = 0.001 seconds

comm_modify vel yes
compute cTEMP_CORE gCORES temp/com
compute cTEMP all temp/drude

fix fDIRECT all drude/transform/direct
fix fNVT1 gCORES nvt temp ${vTEMP} ${vTEMP} 100.0
fix fNVT1 gCORES nvt temp 260 ${vTEMP} 100.0
fix fNVT1 gCORES nvt temp 260 260 100.0
fix fNVT2 gDRUDES nvt temp ${vTEMP_D} ${vTEMP_D} 20.0
fix fNVT2 gDRUDES nvt temp 1 ${vTEMP_D} 20.0
fix fNVT2 gDRUDES nvt temp 1 1 20.0
fix fINVERSE all drude/transform/inverse

fix fMOMENTUM all momentum 100 linear 1 1 1

thermo_style custom step cpu etotal ke temp pe ebond eangle edihed eimp evdwl ecoul elong press vol c_cTEMP[1] c_cTEMP[2]
thermo 50

timestep 0.5
run 20
PPPM initialization ...
  using 12-bit tables for long-range coulomb (src/kspace.cpp:342)
  G vector (1/distance) = 0.36786669
  grid = 36 36 36
  stencil order = 5
  estimated absolute RMS force accuracy = 0.031353958
  estimated relative force accuracy = 9.4421513e-05
  using double precision FFTW3
  3d grid and FFT values/proc = 15625 6480
Generated 0 of 10 mixed pair_coeff terms from geometric mixing rule
Rebuild special list taking Drude particles into account
Old max number of 1-2 to 1-4 neighbors: 17
New max number of 1-2 to 1-4 neighbors: 17 (+0)
Neighbor list info ...
  update: every = 1 steps, delay = 0 steps, check = yes
  max neighbors/atom: 2000, page size: 100000
  master list distance cutoff = 10
  ghost atom cutoff = 10
  binsize = 5, bins = 8 8 8
  2 neighbor lists, perpetual/occasional/extra = 2 0 0
  (1) pair lj/cut/coul/long, perpetual
      attributes: half, newton on
      pair build: half/bin/newton
      stencil: half/bin/3d
      bin: standard
  (2) pair thole, perpetual, skip from (1)
      attributes: half, newton on
      pair build: skip
      stencil: none
      bin: none
Per MPI rank memory allocation (min/avg/max) = 15.46 | 15.82 | 15.9 Mbytes
   Step          CPU           TotEng         KinEng          Temp          PotEng         E_bond        E_angle        E_dihed        E_impro         E_vdwl         E_coul         E_long         Press          Volume       c_cTEMP[1]     c_cTEMP[2]  
         0   0              6535.5187      2714.74        248.45112      3820.7787      3724.3278      140.75328      1.4735401      0             -518.77975      595169.42     -594696.41      4439.7916      55742.797      334.61375      18.435655    
        20   0.27035429     2110.6159      1286.2897      117.72034      824.32616      200.6474       892.23866      56.146398      0             -746.97708      595293.79     -594871.52      8572.3317      55742.797      158.81461      8.0179029    
Loop time of 0.270442 on 8 procs for 20 steps with 4500 atoms

Performance: 3.195 ns/day, 7.512 hours/ns, 73.953 timesteps/s, 332.789 katom-step/s
95.1% CPU use with 8 MPI tasks x no OpenMP threads

MPI task timing breakdown:
Section |  min time  |  avg time  |  max time  |%varavg| %total
---------------------------------------------------------------
Pair    | 0.061208   | 0.0888     | 0.14707    |   9.2 | 32.84
Bond    | 0.0058095  | 0.0074301  | 0.0096947  |   1.5 |  2.75
Kspace  | 0.067838   | 0.12569    | 0.15283    |   7.6 | 46.47
Neigh   | 0          | 0          | 0          |   0.0 |  0.00
Comm    | 0.0069193  | 0.0094193  | 0.011283   |   1.5 |  3.48
Output  | 0.00012376 | 0.00016558 | 0.0001954  |   0.0 |  0.06
Modify  | 0.036804   | 0.037598   | 0.038667   |   0.3 | 13.90
Other   |            | 0.001343   |            |       |  0.50

Nlocal:          562.5 ave         614 max         463 min
Histogram: 1 0 0 1 1 0 1 0 1 3
Nghost:        4297.75 ave        4432 max        4210 min
Histogram: 1 2 1 1 0 1 1 0 0 1
Neighs:         114247 ave      145444 max       96205 min
Histogram: 1 1 1 2 2 0 0 0 0 1

Total # of neighbors = 913979
Ave neighs/atom = 203.10644
Ave special neighs/atom = 13.333333
Neighbor list builds = 0
Dangerous builds = 0
Total wall time: 0:00:00
