LAMMPS (4 Jan 2019)
# INPUT FILE FOR DPD_Fluid

##log             #log.dpd-vv
boundary        p p p

units           metal  # ev, ps
atom_style      dpd    # atomic atom style can also be used
read_data       data.dpd
  orthogonal box = (-64.5 -64.5 -64.5) to (64.5 64.5 64.5)
  2 by 2 by 2 MPI processor grid
  reading atoms ...
  10125 atoms
  reading velocities ...
  10125 velocities

comm_modify     mode single vel yes
mass            1 125.9

pair_style      dpd/fdt 300.0 8.6 245455
pair_coeff      1 1 0.075 0.022 8.60

neighbor        2.0 bin
neigh_modify    every 1 delay 0 check no once no

timestep        0.001

fix             2 all nve

variable        totEnergy equal pe+ke

thermo          10
thermo_style    custom step temp press pe ke v_totEnergy
thermo_modify   format float %24.16f

run             1000
Neighbor list info ...
  update every 1 steps, delay 0 steps, check no
  max neighbors/atom: 2000, page size: 100000
  master list distance cutoff = 10.6
  ghost atom cutoff = 10.6
  binsize = 5.3, bins = 25 25 25
  1 neighbor lists, perpetual/occasional/extra = 1 0 0
  (1) pair dpd/fdt, perpetual
      attributes: half, newton on
      pair build: half/bin/atomonly/newton
      stencil: half/bin/3d/newton
      bin: standard
Per MPI rank memory allocation (min/avg/max) = 3.365 | 3.367 | 3.37 Mbytes
Step Temp Press PotEng KinEng v_totEnergy 
       0     301.4391322267260307    1548.1892659801528680    1188.6488072196161738     394.4722035796050932    1583.1210107992212670 
      10     301.3446463860702806    1489.0609333114382480    1188.7156592922278833     394.3485566015395420    1583.0642158937673685 
      20     301.4085557046546455    1560.8451276213550045    1188.7881744803639776     394.4321902344557884    1583.2203647148198797 
      30     301.2901176012852034    1540.1087126039863051    1188.8589326758524294     394.2771986138297393    1583.1361312896822255 
      40     301.3653229359082957    1533.4363449998920714    1188.9261372252753972     394.3756145489160758    1583.3017517741914162 
      50     301.2728446958640802    1441.6944046072794663    1188.9888124272874848     394.2545947766524819    1583.2434072039400235 
      60     301.3016739891928637    1539.0568758088875256    1189.0527981422205812     394.2923216463626090    1583.3451197885831334 
      70     301.2669848210756527    1404.7353108961801809    1189.1138174453762986     394.2469263704193168    1583.3607438157955585 
      80     301.0992824924707634    1562.5876096277816032    1189.1744300187779118     394.0274661211095690    1583.2018961398875945 
      90     301.2968496579185853    1562.5182091084136573    1189.2372705094462617     394.2860083831359361    1583.5232788925823115 
     100     301.0995222431490674    1611.7219477573821678    1189.3041095919056716     394.0277798659697055    1583.3318894578753770 
     110     301.0834903522206218    1548.5283606461653108    1189.3711502853298043     394.0068000572256324    1583.3779503425553230 
     120     300.8235394630098085    1496.6226852032204988    1189.4307032147362406     393.6666206009885514    1583.0973238157248488 
     130     300.3294260072399879    1545.8382961374359184    1189.4871004790825282     393.0200090536554853    1582.5071095327380135 
     140     300.4807328757827918    1571.4851220200339412    1189.5375464103599370     393.2180137168519991    1582.7555601272119929 
     150     300.3899936516630760    1436.9814078627778144    1189.5881391733209966     393.0992696724899247    1582.6874088458109782 
     160     300.3475051083193534    1564.4774102931098696    1189.6370000791434904     393.0436679024215323    1582.6806679815649659 
     170     300.0864185514931819    1599.6806764915261283    1189.6791302646211079     392.7020022778045814    1582.3811325424258030 
     180     300.2139341749597747    1547.8240926263495112    1189.7222332300029848     392.8688730109045650    1582.5911062409074930 
     190     300.0665424080636967    1575.8842465572470246    1189.7690575377112054     392.6759917660326664    1582.4450493037438719 
     200     299.4868093742977067    1498.1770536057149457    1189.8145283021990508     391.9173358953491402    1581.7318641975482478 
     210     299.2915463734869377    1495.6689267708877651    1189.8545403306043227     391.6618089316188502    1581.5163492622232297 
     220     299.2704549254951303    1568.9359335244837439    1189.8902715075616925     391.6342080361924332    1581.5244795437540688 
     230     299.3471216872848117    1504.5604998732130753    1189.9214027877687840     391.7345364382850335    1581.6559392260537606 
     240     299.3761148451335998    1507.6797474812167366    1189.9526716306102117     391.7724777459741290    1581.7251493765843406 
     250     299.5577482416351245    1457.4924926219478039    1189.9856892393509042     392.0101686045973111    1581.9958578439482153 
     260     299.5917533728700164    1594.7341086272563189    1190.0165187950215113     392.0546687295550896    1582.0711875245765441 
     270     299.7130386314984207    1491.3104087839187741    1190.0485979713707820     392.2133862221362506    1582.2619841935070326 
     280     299.3140153806615444    1563.7149298516801537    1190.0817483605924281     391.6912125419163431    1581.7729609025086575 
     290     299.1548292288114226    1451.3109613546230321    1190.1109754067156246     391.4828968145062618    1581.5938722212217726 
     300     298.9660571052519344    1588.2843503234516902    1190.1386103027491572     391.2358640055778665    1581.3744743083270805 
     310     298.8649775840111715    1427.5303724823615994    1190.1667890075548257     391.1035883412137650    1581.2703773487685339 
     320     298.9747054623832696    1478.4299215135636132    1190.1925434104346095     391.2471815026451054    1581.4397249130797718 
     330     299.0201349322586566    1599.1924737578021904    1190.2202786804973584     391.3066318565418555    1581.5269105370391571 
     340     298.9344617937684347    1464.3253384134429780    1190.2484859983239858     391.1945174423376557    1581.4430034406616414 
     350     298.8716499960468127    1621.7741077165394472    1190.2718524687300032     391.1123200578275032    1581.3841725265574496 
     360     298.4602697490381615    1497.1079717287220774    1190.2933943977145645     390.5739756453158407    1580.8673700430304052 
     370     298.1590979111779802    1542.7318582772727495    1190.3127813447813423     390.1798532310850760    1580.4926345758663047 
     380     298.1448420301534270    1470.6362863293913961    1190.3297574178782270     390.1611975616629024    1580.4909549795411294 
     390     298.0177871161579333    1488.2352403768115892    1190.3467446014510642     389.9949297266635426    1580.3416743281145500 
     400     298.1010880404916747    1563.0515106626608031    1190.3626975232618861     390.1039397909489139    1580.4666373142108569 
     410     298.2522550243974706    1456.3696421200882014    1190.3769974516505954     390.3017613969537365    1580.6787588486042750 
     420     298.3534885567888750    1581.2876007247919006    1190.3883333935921200     390.4342386048849107    1580.8225719984770876 
     430     298.3616198010686276    1535.3914684475053036    1190.3952013032521791     390.4448793927122097    1580.8400806959643887 
     440     298.4602428499654252    1609.8929125552094774    1190.3958054802333208     390.5739404443901321    1580.9697459246235667 
     450     298.4105345386358863    1491.9978012142626085    1190.3885561152042101     390.5088906714507857    1580.8974467866551095 
     460     298.5618210387360136    1471.4963606448641258    1190.3740131547529018     390.7068686798981503    1581.0808818346511089 
     470     298.4626144974710087    1619.7842452985344153    1190.3546948592661465     390.5770440527728056    1580.9317389120390089 
     480     298.4183644460525215    1577.6211931773441393    1190.3320822443311044     390.5191371209069189    1580.8512193652379665 
     490     298.4215894459645710    1504.3394983830778528    1190.3023187512535515     390.5233574516000772    1580.8256762028536286 
     500     298.9035843426344172    1648.0074367167248965    1190.2701532823105026     391.1541102924769575    1581.4242635747873464 
     510     298.9162109826913820    1542.5703791578325763    1190.2332671305166514     391.1706338887674974    1581.4039010192841488 
     520     299.1003940509816061    1533.5725582486568328    1190.1916339634835822     391.4116613236390094    1581.6032952871225916 
     530     298.7164794883440777    1549.0053367609268662    1190.1453374842199082     390.9092593216453793    1581.0545968058652306 
     540     298.7955764216227976    1513.4838695078585715    1190.0914017188831622     391.0127679183440250    1581.1041696372271872 
     550     298.8874152923114025    1518.9917040123461902    1190.0351828689974809     391.1329509928744415    1581.1681338618718655 
     560     299.3006352001702339    1494.5571884957043949    1189.9700930822173177     391.6737028402272927    1581.6437959224444967 
     570     299.5296816273983040    1527.6622877113375125    1189.9011944283658977     391.9734397994046162    1581.8746342277704571 
     580     299.5268487996230533    1440.6073700863971681    1189.8326054452122662     391.9697326768203425    1581.8023381220325518 
     590     299.7512934489488430    1457.2138585529846750    1189.7595548620906811     392.2634476127252015    1582.0230024748159394 
     600     299.7776573774320354    1579.8363813204357484    1189.6819884850312974     392.2979482327573919    1581.9799367177886324 
     610     299.5137582635402964    1578.9654136017445580    1189.6026922062601443     391.9526020124090451    1581.5552942186691325 
     620     299.6046956083035298    1489.6348738291092104    1189.5196057057828511     392.0716053233310276    1581.5912110291137651 
     630     299.7695076493686202    1469.6237680779302082    1189.4304787123794540     392.2872832565016097    1581.7177619688809500 
     640     299.5643892936086559    1491.6986264716658752    1189.3424452896019829     392.0188592825021487    1581.3613045721040180 
     650     299.9349496332198441    1575.0604992515186495    1189.2551414368781479     392.5037855515165006    1581.7589269883947054 
     660     300.0539765948167314    1498.2922756588636730    1189.1657201039686242     392.6595477695127556    1581.8252678734813799 
     670     300.2054361414425330    1510.6722250700361201    1189.0747482900665091     392.8577522317845023    1581.9325005218511251 
     680     300.3007120996693402    1499.1611056664655734    1188.9874678312241940     392.9824331811763614    1581.9699010124004417 
     690     300.2822846317463359    1583.7141856241021287    1188.9017016499228703     392.9583184492094574    1581.8600200991322708 
     700     300.2776904041373882    1503.2981028804315429    1188.8111943707594946     392.9523063064751796    1581.7635006772347879 
     710     300.0379758697021089    1499.9964843449702130    1188.7192887111000346     392.6386087452785318    1581.3578974563786232 
     720     300.1066786711710961    1492.4232468957522997    1188.6249990619051005     392.7285152723023316    1581.3535143342073752 
     730     300.0529099693999910    1537.1666229078634842    1188.5332311309794022     392.6581519518051664    1581.1913830827845686 
     740     300.0390860500619397    1563.7545676283166358    1188.4448293143018418     392.6400615602786388    1581.0848908745804238 
     750     300.2592869881335105    1631.1751805752194286    1188.3567102720658113     392.9282230495641670    1581.2849333216299783 
     760     300.3063705654691375    1671.2758539249164187    1188.2700432194235418     392.9898380176235264    1581.2598812370470114 
     770     300.3478063151241599    1597.8157894046642014    1188.1823803823217531     393.0440620705945207    1581.2264424529162170 
     780     300.1355115264720439    1621.9941316321155682    1188.0954282991383479     392.7662468033150276    1580.8616751024533187 
     790     300.2139876213964271    1616.9459824708267206    1188.0077042309796980     392.8689429524993670    1580.8766471834790082 
     800     300.0381426425859104    1488.3756621004781664    1187.9195226150352482     392.6388269892287894    1580.5583496042640945 
     810     300.1065682574452467    1545.4198950623026576    1187.8367804173235527     392.7283707816205265    1580.5651511989440223 
     820     300.2123576070242734    1555.4770298546773120    1187.7603525775875823     392.8668098672675342    1580.6271624448550028 
     830     300.3829152399725899    1461.2337499159330036    1187.6832765034650947     393.0900066526664318    1580.7732831561315834 
     840     300.7100585953133987    1468.8989233339125349    1187.6077918269647853     393.5181161662336535    1581.1259079931983251 
     850     300.7792792716015811    1634.5859724655615537    1187.5373570961876339     393.6087003996308340    1581.1460574958184679 
     860     300.8836482832914498    1607.1093682304433514    1187.4688342541153361     393.7452807889206952    1581.2141150430361449 
     870     301.0195752016988422    1570.0903508023118320    1187.3994999945762174     393.9231587924628002    1581.3226587870390176 
     880     300.7781142085808597    1662.0669574491180356    1187.3332541026020408     393.6071757635502877    1580.9404298661522716 
     890     301.1029421094127088    1480.5636884748473676    1187.2700155230459131     394.0322552045595899    1581.3022707276054462 
     900     301.0621166929703350    1490.8307434655357611    1187.2081838794124451     393.9788298517624412    1581.1870137311748294 
     910     301.0752269025859960    1469.5189288732883597    1187.1466519385426182     393.9959862615433508    1581.1426382000859121 
     920     301.2504390485496515    1508.1116643706159266    1187.0898539847851225     394.2252740809503280    1581.3151280657355073 
     930     301.1279401271652318    1496.1789507907640200    1187.0361958829075775     394.0649683532311656    1581.1011642361386293 
     940     301.0896992822899847    1572.0558373815711093    1186.9821591885809084     394.0149252475691810    1580.9970844361500895 
     950     301.1204423789712905    1530.2778535041813939    1186.9292105325343982     394.0551565772016147    1580.9843671097360129 
     960     301.3166087946934795    1520.2282265472549625    1186.8760713181111441     394.3118657765236321    1581.1879370946348899 
     970     301.2896414091209749    1495.9459558772846322    1186.8237527729011163     394.2765754546168750    1581.1003282275180482 
     980     301.3670788056942911    1476.3973698960987804    1186.7764296764814844     394.3779123322813689    1581.1543420087627965 
     990     301.5206168687453214    1478.0894307091425617    1186.7362505391463401     394.5788368028956370    1581.3150873420420339 
    1000     301.6379038500415959    1586.3420393990199955    1186.6993204359157517     394.7323220309792760    1581.4316424668950276 
Loop time of 2.4651 on 8 procs for 1000 steps with 10125 atoms

Performance: 35.049 ns/day, 0.685 hours/ns, 405.663 timesteps/s
99.2% CPU use with 8 MPI tasks x no OpenMP threads

MPI task timing breakdown:
Section |  min time  |  avg time  |  max time  |%varavg| %total
---------------------------------------------------------------
Pair    | 0.71       | 0.75671    | 0.82214    |   4.2 | 30.70
Neigh   | 1.225      | 1.2389     | 1.2538     |   0.9 | 50.26
Comm    | 0.3575     | 0.43794    | 0.48825    |   6.4 | 17.77
Output  | 0.0036956  | 0.0038502  | 0.0043874  |   0.3 |  0.16
Modify  | 0.017037   | 0.017233   | 0.017454   |   0.1 |  0.70
Other   |            | 0.01048    |            |       |  0.43

Nlocal:    1265.62 ave 1280 max 1255 min
Histogram: 2 2 0 1 0 0 0 0 2 1
Nghost:    1690 ave 1700 max 1674 min
Histogram: 1 1 0 0 0 1 1 1 0 3
Neighs:    14347.9 ave 14662 max 14112 min
Histogram: 1 1 2 1 0 1 0 0 1 1

Total # of neighbors = 114783
Ave neighs/atom = 11.3366
Neighbor list builds = 1000
Dangerous builds not checked
Total wall time: 0:00:02
