LAMMPS (4 Jan 2019)

units           lj
lattice         fcc 0.8442
Lattice spacing in x,y,z = 1.6796 1.6796 1.6796
boundary        f f f

region          ball   sphere   0.0 0.0 0.0 5.0
region          box    block  -10 10 -10 10 -10 10
region          half   block  -10  0 -10 10 -10 10

# add molecule ids so we can use chunk/atom
fix             0   all property/atom mol ghost yes

create_box      2  box
Created orthogonal box = (-16.796 -16.796 -16.796) to (16.796 16.796 16.796)
  2 by 2 by 2 MPI processor grid
create_atoms    1  region ball
Created 2123 atoms
  Time spent = 0.00182727 secs

pair_style      lj/cut 4.0
pair_coeff      * *  1.0 1.0
mass            *    1.0
set             group all mol 1
  2123 settings made for mol

# label half the sphere with a different type for better visualization
set             region half   type 2
  1142 settings made for type

# use a dynamic group (may require a patch to fix addtorque with older versions of LAMMPS)
group           ball   dynamic all   region ball
dynamic group ball defined

neigh_modify    delay 2  every 1  check yes

minimize        0.0  0.0    1000  10000
WARNING: Using 'neigh_modify every 1 delay 0 check yes' setting during minimization (../min.cpp:168)
Neighbor list info ...
  update every 1 steps, delay 0 steps, check yes
  max neighbors/atom: 2000, page size: 100000
  master list distance cutoff = 4.3
  ghost atom cutoff = 4.3
  binsize = 2.15, bins = 16 16 16
  1 neighbor lists, perpetual/occasional/extra = 1 0 0
  (1) pair lj/cut, perpetual
      attributes: half, newton on
      pair build: half/bin/atomonly/newton
      stencil: half/bin/3d/newton
      bin: standard
Per MPI rank memory allocation (min/avg/max) = 4.324 | 4.331 | 4.336 Mbytes
Step Temp E_pair E_mol TotEng Press 
       0            0   -6.2285099            0   -6.2285099  -0.38871568 
    1000            0   -7.3616908            0   -7.3616908 -9.8173842e-16 
Loop time of 2.29281 on 8 procs for 1000 steps with 2123 atoms

99.3% CPU use with 8 MPI tasks x no OpenMP threads

Minimization stats:
  Stopping criterion = max iterations
  Energy initial, next-to-last, final = 
        -6.22850993032     -7.36169083402     -7.36169083402
  Force two-norm initial, final = 197.762 3.39601e-12
  Force max component initial, final = 7.88704 1.4877e-13
  Final line search alpha, max atom move = 1 1.4877e-13
  Iterations, force evaluations = 1000 1994

MPI task timing breakdown:
Section |  min time  |  avg time  |  max time  |%varavg| %total
---------------------------------------------------------------
Pair    | 1.1491     | 1.5759     | 2.023      |  24.7 | 68.73
Neigh   | 0.0066076  | 0.0090657  | 0.011238   |   2.0 |  0.40
Comm    | 0.2129     | 0.66735    | 1.1011     |  38.6 | 29.11
Output  | 3.7236e-05 | 3.9145e-05 | 4.7365e-05 |   0.0 |  0.00
Modify  | 0          | 0          | 0          |   0.0 |  0.00
Other   |            | 0.04048    |            |       |  1.77

Nlocal:    265.375 ave 277 max 256 min
Histogram: 1 0 0 3 2 0 1 0 0 1
Nghost:    1080.62 ave 1090 max 1069 min
Histogram: 1 0 0 1 0 2 3 0 0 1
Neighs:    33849.9 ave 41396 max 26601 min
Histogram: 1 0 2 1 0 0 2 0 1 1

Total # of neighbors = 270799
Ave neighs/atom = 127.555
Neighbor list builds = 11
Dangerous builds = 0
reset_timestep  0

velocity        all create 1.2 12351235

fix             1   all  nve
fix             2   all  wall/reflect  xlo EDGE xhi EDGE ylo EDGE yhi EDGE zlo EDGE zhi EDGE

compute 1 all chunk/atom molecule
compute 2 ball omega/chunk 1
compute 3 ball inertia/chunk 1

# compute rotational kinetic energy: 1/2 * I * omega**2
variable r_ke_x equal c_2[1][1]*c_2[1][1]*c_3[1][1]*0.5
variable r_ke_y equal c_2[1][2]*c_2[1][2]*c_3[1][2]*0.5
variable r_ke_z equal c_2[1][3]*c_2[1][3]*c_3[1][3]*0.5

# output moments of inertia for x,y,z and angular velocity as well as rotational kinertic energy

thermo_style custom step ke pe c_3[1][1] c_3[1][2] c_3[1][3] c_2[1][1] c_2[1][2] c_2[1][3] v_r_ke_x v_r_ke_y v_r_ke_z
thermo 500

# dump 1 all atom 100 dump.lammpstrj

# dump 2 all movie 10 ball.mp4 type mass

# equilibration w/o torque added
run 1000 post no
WARNING: One or more dynamic groups may not be updated at correct point in timestep (../fix_group.cpp:171)
Per MPI rank memory allocation (min/avg/max) = 3.328 | 3.335 | 3.34 Mbytes
Step KinEng PotEng c_3[1][1] c_3[1][2] c_3[1][3] c_2[1][1] c_2[1][2] c_2[1][3] v_r_ke_x v_r_ke_y v_r_ke_z 
       0    1.7991521   -7.3616908    51125.265    51125.265    51125.265 -0.0010818646 -0.0022402573 -0.0032997613  0.029919298   0.12829253   0.27833679 
     500   0.90715022   -6.4581894    52466.474    52352.989    51931.725 -0.00097543952 -0.0021001377 -0.0031152798   0.02496046   0.11545348   0.25199787 
    1000   0.79800718   -6.3415142    53799.907    54068.412    54194.349 -0.0011293549 -0.0019181973 -0.0033488203  0.034309344   0.09947184   0.30388391 
Loop time of 0.860915 on 8 procs for 1000 steps with 2123 atoms


# start spinning the ball. rotation around z should increase and Erot_z should grow
fix 4 ball addtorque 0.0 0.0 200.0
run 10000 upto  post no
WARNING: One or more dynamic groups may not be updated at correct point in timestep (../fix_group.cpp:171)
Per MPI rank memory allocation (min/avg/max) = 3.328 | 3.335 | 3.34 Mbytes
Step KinEng PotEng c_3[1][1] c_3[1][2] c_3[1][3] c_2[1][1] c_2[1][2] c_2[1][3] v_r_ke_x v_r_ke_y v_r_ke_z 
    1000   0.79800718   -6.3415142    53799.907    54068.412    54194.349 -0.0011293549 -0.0019181973 -0.0033488203  0.034309344   0.09947184   0.30388391 
    1500   0.69330724   -6.2318305    55034.736    55204.722    54887.434 -0.00080188076 -0.0018358991 0.0057622398  0.017694019   0.09303446   0.91122491 
    2000   0.65307248   -6.1880961    54895.437      55033.5    54599.575 -0.0001573814 -0.0022820998  0.014127437 0.00067984996   0.14330666    5.4486138 
    2500   0.69147195   -6.2234156    54366.896    55074.025    54621.707 -0.0013547324 -0.0024057588   0.02376663  0.049889777   0.15937529     15.42661 
    3000   0.74701341   -6.2746983    53738.185    54195.012    53621.662 -0.00078289239 -0.0019176052  0.033327815  0.016468617  0.099643207    29.779949 
    3500   0.79603976   -6.3171613    52972.687    53702.121    52990.373 -0.00070746298 -0.0030216568  0.042861133  0.013256517   0.24516118    48.673689 
    4000   0.80513954   -6.3147135    53235.405    53715.595    52821.657 -0.00098478217 -0.0015480779  0.053218335  0.025813739  0.064365921    74.800514 
    4500   0.79826666   -6.2936379    53601.036    53685.674    53705.463 -0.00088901217 -0.001871443  0.061622292  0.021181592  0.094011641    101.96806 
    5000    0.7865369   -6.2658467    53277.541    54161.154    54081.971 -0.00048139755 -0.0026408922  0.069921094 0.0061733646   0.18886839    132.20228 
    5500   0.79040163   -6.2519944    53765.309    53758.396    54048.998 -0.00081077351 -0.0028536673  0.078218506  0.017671412   0.21888851    165.33953 
    6000   0.80750485   -6.2502637    53739.521    53435.401    54277.226 -0.00027453221 -0.0032102586  0.087196074 0.0020251183   0.27534621    206.33909 
    6500   0.85641797   -6.2780545    53337.065    53440.179    53996.453 0.0001112715 -0.0022020189   0.09622957 0.00033019235    0.1295627    250.00709 
    7000   0.86310631   -6.2611103    53454.061    53133.385    53858.739 -0.0001357251 -0.0017473386   0.10490811 0.00049234672  0.081113219    296.37687 
    7500   0.90824285   -6.2804798     53342.84    53188.628    53727.847 -0.00061963424 -0.0024101963   0.11415457  0.010240401   0.15448759    350.07095 
    8000   0.93343452   -6.2761927    53504.063    53441.956    53268.601 -0.00079517299 -0.0025228739   0.12394784  0.016915312   0.17007616    409.18454 
    8500   0.94695361   -6.2612446     53719.21      52957.3    53753.393 0.00039064989 -0.001679004   0.13174365 0.0040989728   0.07464476    466.48241 
    9000    1.0178568   -6.2971626    53718.257    53153.124    53574.962 -0.0010221802 -0.00013148461   0.14227449  0.028063822 0.00045946098    542.23302 
    9500     1.038015   -6.2847473    53208.817    53151.951    53782.482 -0.001033339 -0.0021059617   0.15145906  0.028407905   0.11786644    616.88094 
   10000    1.0622662   -6.2708404    53269.458    54055.941    53994.588 -0.00042665324 -0.0028034829   0.15992681 0.0048483993   0.21242677    690.49855 
Loop time of 8.20083 on 8 procs for 9000 steps with 2123 atoms


# continue without adding more torque. rotation continues at fixed speed
unfix 4
run 5000
WARNING: One or more dynamic groups may not be updated at correct point in timestep (../fix_group.cpp:171)
Per MPI rank memory allocation (min/avg/max) = 3.328 | 3.335 | 3.34 Mbytes
Step KinEng PotEng c_3[1][1] c_3[1][2] c_3[1][3] c_2[1][1] c_2[1][2] c_2[1][3] v_r_ke_x v_r_ke_y v_r_ke_z 
   10000    1.0622662   -6.2708404    53269.458    54055.941    53994.588 -0.00042665324 -0.0028034829   0.15992681 0.0048483993   0.21242677    690.49855 
   10500    1.0583984   -6.2668637    52591.306    53399.426    54764.818 -0.0014176758 -0.0011784244   0.15644078  0.052849123  0.037077466    670.14934 
   11000    1.0330642   -6.2413973    52832.325    52634.542     54879.18 -0.0007004734 -0.0012617444   0.15501658  0.012961433  0.041897065    659.37717 
   11500    1.0277903   -6.2360566    52496.137    52982.221     54235.25 -0.0011465609 -0.00085831078   0.15516269  0.034505762  0.019515932    652.86932 
   12000     1.036465   -6.2441613    52358.302    52409.035    55156.049 -0.0023588496 -0.00071016496   0.15210288   0.14566529  0.013215836    638.02548 
   12500    1.0317569   -6.2393012    52229.881    52462.529    54691.973 -0.0023855942 -0.0019682125   0.15246703   0.14862168   0.10161626    635.69014 
   13000     1.025212   -6.2327249    52509.025    52512.246    54739.271 -0.0022642211 -0.0015180977   0.15470679   0.13459893    0.0605104    655.07012 
   13500      1.04206   -6.2495542    52293.066    52432.508    55095.502 -0.0023744537 -0.0042584019   0.15275907   0.14741495    0.4754052    642.83594 
   14000    1.0321169   -6.2397994    52287.941    52229.343    55071.487 -0.001104973 -0.0042560075    0.1515698  0.031920884   0.47303071    632.58973 
   14500    1.0500031   -6.2578041    52552.684    52503.377    54562.794 -0.0012300972 -0.0029901492   0.15379396  0.039759763   0.23471614     645.2755 
   15000    1.0355762   -6.2435198     52308.26    52320.333    55357.618 -0.00020956244 -0.0029385143   0.15149035 0.0011485957   0.22588953    635.21005 
Loop time of 4.31374 on 8 procs for 5000 steps with 2123 atoms

Performance: 500725.440 tau/day, 1159.087 timesteps/s
99.2% CPU use with 8 MPI tasks x no OpenMP threads

MPI task timing breakdown:
Section |  min time  |  avg time  |  max time  |%varavg| %total
---------------------------------------------------------------
Pair    | 1.7124     | 2.4174     | 3.0929     |  33.5 | 56.04
Neigh   | 0.28029    | 0.42301    | 0.55882    |  17.6 |  9.81
Comm    | 0.57954    | 1.4036     | 2.2619     |  54.1 | 32.54
Output  | 0.00072119 | 0.00076024 | 0.00084923 |   0.0 |  0.02
Modify  | 0.038444   | 0.04104    | 0.043793   |   1.2 |  0.95
Other   |            | 0.02791    |            |       |  0.65

Nlocal:    265.375 ave 280 max 244 min
Histogram: 1 0 0 0 0 3 2 1 0 1
Nghost:    1045 ave 1069 max 1031 min
Histogram: 1 2 0 2 0 2 0 0 0 1
Neighs:    30241 ave 36802 max 23118 min
Histogram: 2 0 0 1 1 0 0 2 1 1

Total # of neighbors = 241928
Ave neighs/atom = 113.956
Neighbor list builds = 549
Dangerous builds = 0
Total wall time: 0:00:15
