LAMMPS (4 Jan 2019)
# Input File for DPD fluid under isoenergetic conditions using the VV-SSA integration scheme
##log             #log.dpde-shardlow
boundary        p p p

units           metal  # ev, ps
atom_style      dpd
read_data       data.dpde
  orthogonal box = (-5.36874 -4.6558 -6.56118) to (61.4618 53.2342 46.2472)
  2 by 2 by 2 MPI processor grid
  reading atoms ...
  1000 atoms
  reading velocities ...
  1000 velocities

comm_modify 	mode single vel yes
mass            1 100.0

pair_style      dpd/fdt/energy 10.0 245455
pair_coeff      1 1 0.075 0.022 3.2E-5 10.00

neighbor        2.0 bin
neigh_modify    every 1 delay 0 check no once no

timestep        0.001

compute         dpdU all dpd
variable        totEnergy equal pe+ke+c_dpdU[1]+c_dpdU[2]

thermo          1
thermo_style    custom step temp pe ke v_totEnergy
thermo_modify   format float %15.10f

fix             1 all shardlow
fix             2 all nve
fix             3 all eos/cv 0.0005

run             100
Neighbor list info ...
  update every 1 steps, delay 0 steps, check no
  max neighbors/atom: 2000, page size: 100000
  master list distance cutoff = 12
  ghost atom cutoff = 12
  binsize = 6, bins = 12 10 9
  2 neighbor lists, perpetual/occasional/extra = 2 0 0
  (1) pair dpd/fdt/energy, perpetual
      attributes: half, newton on
      pair build: half/bin/atomonly/newton
      stencil: half/bin/3d/newton
      bin: standard
  (2) fix shardlow, perpetual
      attributes: half, newton on, ghost, ssa
      pair build: half/bin/newton/ssa
      stencil: half/bin/3d/newton/ssa
      bin: ssa
Per MPI rank memory allocation (min/avg/max) = 3.659 | 3.659 | 3.66 Mbytes
Step Temp PotEng KinEng v_totEnergy 
       0  128.6667660382  263.2538386154   16.6148533499  429.8686919654 
       1  128.8821622581  263.2538740710   16.6426676544  429.8686919651 
       2  129.2847420908  263.2539503471   16.6946531444  429.8686919648 
       3  129.8515996787  263.2540713807   16.7678519663  429.8686919596 
       4  130.4586147931  263.2542510475   16.8462363652  429.8686919595 
       5  130.5542447194  263.2544700791   16.8585851422  429.8686919594 
       6  130.6090070406  263.2547278088   16.8656566492  429.8686919593 
       7  131.0841292481  263.2550360117   16.9270096003  429.8686919593 
       8  131.1624628799  263.2553874700   16.9371248914  429.8686919585 
       9  131.2425794409  263.2557881796   16.9474704139  429.8686919481 
      10  131.5522653465  263.2562292043   16.9874604289  429.8686919483 
      11  131.4540160554  263.2567033328   16.9747734110  429.8686919484 
      12  131.6464638669  263.2572167003   16.9996243672  429.8686919487 
      13  132.2028596672  263.2577601898   17.0714722492  429.8686919490 
      14  132.0802702375  263.2583479457   17.0556421677  429.8686919494 
      15  131.9914923077  263.2589700350   17.0441781950  429.8686919493 
      16  131.9455140377  263.2596339784   17.0382409803  429.8686919497 
      17  131.8722448264  263.2603257059   17.0287796623  429.8686919502 
      18  132.2567366700  263.2610615909   17.0784294342  429.8686919507 
      19  132.4843109806  263.2618290115   17.1078163063  429.8686919513 
      20  132.9177974596  263.2626428682   17.1637927989  429.8686919506 
      21  132.9167103363  263.2634836188   17.1636524177  429.8686919513 
      22  132.6774601360  263.2643706173   17.1327578277  429.8686919520 
      23  132.9000083798  263.2653028596   17.1614956793  429.8686919529 
      24  132.8177073720  263.2662869633   17.1508680774  429.8686919619 
      25  132.5631269157  263.2673115397   17.1179938778  429.8686919628 
      26  132.7394985810  263.2683717288   17.1407689070  429.8686919638 
      27  132.4567964987  263.2694695411   17.1042633369  429.8686919648 
      28  132.8920327110  263.2706037661   17.1604657741  429.8686919658 
      29  132.9382394819  263.2717863971   17.1664324954  429.8686919669 
      30  133.1898630122  263.2730064481   17.1989248645  429.8686919680 
      31  133.3045992475  263.2742573477   17.2137408561  429.8686919692 
      32  133.0455414987  263.2755413564   17.1802884997  429.8686919704 
      33  133.0040794647  263.2768752349   17.1749344706  429.8686919716 
      34  132.8610167401  263.2782612569   17.1564606544  429.8686919729 
      35  132.9127651821  263.2796787624   17.1631429765  429.8686919743 
      36  132.9646096137  263.2811125562   17.1698376938  429.8686919756 
      37  132.6516174882  263.2825687583   17.1294207437  429.8686919769 
      38  132.5008098041  263.2840611557   17.1099468140  429.8686919783 
      39  132.6020897356  263.2855835235   17.1230251812  429.8686919808 
      40  132.5180615407  263.2871482683   17.1121745460  429.8686919823 
      41  132.7973468342  263.2887565984   17.1482389031  429.8686919839 
      42  132.8570804309  263.2904079992   17.1559523553  429.8686919856 
      43  133.1026097811  263.2921138143   17.1876577775  429.8686919860 
      44  133.0254173250  263.2938732622   17.1776898474  429.8686919878 
      45  132.9964904454  263.2956817672   17.1739544938  429.8686919891 
      46  132.9291670265  263.2975115576   17.1652609612  429.8686920011 
      47  133.2044985533  263.2993713428   17.2008147649  429.8686920029 
      48  133.3421930245  263.3012654783   17.2185953738  429.8686920048 
      49  133.5958437978  263.3031995250   17.2513495226  429.8686920068 
      50  133.2873608529  263.3051628791   17.2115148469  429.8686920088 
      51  133.3258987675  263.3071631231   17.2164912819  429.8686920108 
      52  133.4454176396  263.3092129313   17.2319248596  429.8686920129 
      53  133.7386118020  263.3113142669   17.2697852813  429.8686920261 
      54  133.8149179606  263.3134709680   17.2796387630  429.8686920283 
      55  134.1400194104  263.3156625711   17.3216194009  429.8686920305 
      56  134.4212329621  263.3179052654   17.3579327557  429.8686920433 
      57  134.2327568851  263.3201811007   17.3335946731  429.8686920456 
      58  134.2433526266  263.3224954313   17.3349629106  429.8686920480 
      59  134.4971947496  263.3248480227   17.3677417685  429.8686920504 
      60  134.5813936312  263.3272375906   17.3786144446  429.8686920529 
      61  134.8008940070  263.3296724884   17.4069587224  429.8686920553 
      62  135.2171452779  263.3321526171   17.4607096173  429.8686920578 
      63  135.0267132116  263.3346745975   17.4361189561  429.8686920634 
      64  135.0020685383  263.3372339112   17.4329365676  429.8686920660 
      65  134.8845893092  263.3398356279   17.4177663708  429.8686920686 
      66  134.7531064283  263.3424725870   17.4007878700  429.8686920823 
      67  134.4650835707  263.3451367197   17.3635952236  429.8686920850 
      68  134.5397772165  263.3478496054   17.3732404802  429.8686920878 
      69  134.4005757783  263.3505749995   17.3552652753  429.8686920906 
      70  134.5395099925  263.3533461071   17.3732059733  429.8686921040 
      71  134.8041265762  263.3561781475   17.4073761469  429.8686921070 
      72  134.9525463359  263.3590479084   17.4265417218  429.8686921100 
      73  134.8874711248  263.3619595867   17.4181385022  429.8686921130 
      74  134.7813483749  263.3649116535   17.4044347776  429.8686921161 
      75  134.9795286295  263.3678913783   17.4300259692  429.8686921192 
      76  134.9561969028  263.3708914056   17.4270131227  429.8686921224 
      77  135.1456534670  263.3739470361   17.4514778165  429.8686921258 
      78  135.2790624580  263.3770475328   17.4687050376  429.8686921290 
      79  135.4682363881  263.3801844810   17.4931332345  429.8686921323 
      80  135.5707347622  263.3833597843   17.5063689403  429.8686921356 
      81  135.8394859123  263.3865809114   17.5410730141  429.8686921390 
      82  135.5540659601  263.3898253332   17.5042164831  429.8686921424 
      83  135.8208085216  263.3931040018   17.5386611861  429.8686921459 
      84  135.5071903833  263.3964040510   17.4981633984  429.8686921494 
      85  135.4165120126  263.3997461818   17.4864540202  429.8686921530 
      86  135.2938856582  263.4031181680   17.4706191705  429.8686921514 
      87  135.4281162852  263.4065208590   17.4879524901  429.8686921565 
      88  135.4425960021  263.4099513111   17.4898222688  429.8686921601 
      89  135.6143987445  263.4134236369   17.5120073090  429.8686921639 
      90  135.7416812128  263.4169276156   17.5284434067  429.8686921677 
      91  136.2669009324  263.4204636097   17.5962654938  429.8686921715 
      92  136.4104073169  263.4240411830   17.6147966003  429.8686921738 
      93  136.4605418725  263.4276599404   17.6212705198  429.8686921688 
      94  136.5200034415  263.4313094022   17.6289488448  429.8686921819 
      95  136.6378613417  263.4350092222   17.6441679398  429.8686921860 
      96  135.9279671228  263.4387114828   17.5524986711  429.8686921901 
      97  135.9282183925  263.4424543436   17.5525311178  429.8686921943 
      98  135.6487543395  263.4462259588   17.5164436773  429.8686922012 
      99  135.9476896582  263.4500375651   17.5550454596  429.8686922054 
     100  136.2116582062  263.4538955760   17.5891319517  429.8686922097 
Loop time of 0.150778 on 8 procs for 100 steps with 1000 atoms

Performance: 57.303 ns/day, 0.419 hours/ns, 663.226 timesteps/s
98.4% CPU use with 8 MPI tasks x no OpenMP threads

MPI task timing breakdown:
Section |  min time  |  avg time  |  max time  |%varavg| %total
---------------------------------------------------------------
Pair    | 0.0042548  | 0.0043671  | 0.0045678  |   0.2 |  2.90
Neigh   | 0.057693   | 0.058605   | 0.059808   |   0.3 | 38.87
Comm    | 0.016475   | 0.017578   | 0.018564   |   0.5 | 11.66
Output  | 0.0028749  | 0.0029515  | 0.003269   |   0.2 |  1.96
Modify  | 0.066816   | 0.067117   | 0.067181   |   0.0 | 44.51
Other   |            | 0.0001591  |            |       |  0.11

Nlocal:    125 ave 125 max 125 min
Histogram: 8 0 0 0 0 0 0 0 0 0
Nghost:    598.125 ave 601 max 595 min
Histogram: 2 2 0 0 0 0 0 0 1 3
Neighs:    2346.62 ave 2389 max 2328 min
Histogram: 3 1 2 0 0 0 1 0 0 1

Total # of neighbors = 18773
Ave neighs/atom = 18.773
Neighbor list builds = 100
Dangerous builds not checked

Please see the log.cite file for references relevant to this simulation

Total wall time: 0:00:00
