LAMMPS (4 Jan 2019)
variable	sname index h_atom
#log		${sname}.spe.log

units 		real
newton		on
boundary        p p p
processors      1 * *


atom_style	wavepacket

read_data  	data.${sname}
read_data  	data.h_atom
  orthogonal box = (-0.529177 -0.529177 -0.529177) to (0.529177 0.529177 0.529177)
  1 by 2 by 4 MPI processor grid
  reading atoms ...
  2 atoms

#neighbor        2.0 nsq

pair_style      awpmd/cut -1. hartree ermscale 0.99 free flex_press
pair_coeff 	    * *



timestep        0.001

fix             1 all nve/awpmd

comm_modify	vel yes

compute         energies all pair awpmd/cut
variable        eke equal c_energies[1]
variable        epauli equal c_energies[2]
variable        estatics equal c_energies[3]
variable        errestrain equal c_energies[4]

compute         peratom all stress/atom NULL
compute         p all reduce sum c_peratom[1] c_peratom[2] c_peratom[3]
variable        press equal -(c_p[1]+c_p[2]+c_p[3])/(3*vol)

thermo          1
thermo_style    custom step etotal pe ke v_eke v_epauli v_estatics v_errestrain temp press v_press

run 		0
Neighbor list info ...
  update every 1 steps, delay 10 steps, check yes
  max neighbors/atom: 2000, page size: 100000
  master list distance cutoff = 2.52918
  ghost atom cutoff = 2.52918
  binsize = 1.26459, bins = 1 1 1
  1 neighbor lists, perpetual/occasional/extra = 1 0 0
  (1) pair awpmd/cut, perpetual
      attributes: half, newton off
      pair build: half/bin/newtoff
      stencil: half/bin/3d/newtoff
      bin: standard
WARNING: Proc sub-domain size < neighbor skin, could lead to lost atoms (../domain.cpp:933)
Per MPI rank memory allocation (min/avg/max) = 5.429 | 5.429 | 5.429 Mbytes
Step TotEng PotEng KinEng v_eke v_epauli v_estatics v_errestrain Temp Press v_press 
       0    -266.3192    -266.3192            0    266.32732            0   -532.64652            0            0    156.59865           -0 
Loop time of 1.87195e-05 on 8 procs for 0 steps with 2 atoms

60.8% CPU use with 8 MPI tasks x no OpenMP threads

MPI task timing breakdown:
Section |  min time  |  avg time  |  max time  |%varavg| %total
---------------------------------------------------------------
Pair    | 0          | 0          | 0          |   0.0 |  0.00
Neigh   | 0          | 0          | 0          |   0.0 |  0.00
Comm    | 0          | 0          | 0          |   0.0 |  0.00
Output  | 0          | 0          | 0          |   0.0 |  0.00
Modify  | 0          | 0          | 0          |   0.0 |  0.00
Other   |            | 1.872e-05  |            |       |100.00

Nlocal:    0.25 ave 2 max 0 min
Histogram: 7 0 0 0 0 0 0 0 0 1
Nghost:    249.75 ave 250 max 248 min
Histogram: 1 0 0 0 0 0 0 0 0 7
Neighs:    28.125 ave 225 max 0 min
Histogram: 7 0 0 0 0 0 0 0 0 1

Total # of neighbors = 225
Ave neighs/atom = 112.5
Neighbor list builds = 0
Dangerous builds = 0
Total wall time: 0:00:00
