LAMMPS (4 Jan 2019)

processors * * 1
units metal
boundary p p f
read_data adatom.data
  orthogonal box = (0 0 0) to (17.1214 14.8276 39.3197)
  4 by 2 by 1 MPI processor grid
  reading atoms ...
  181 atoms

pair_style agni
pair_coeff * * Al_jpc.agni Al
Reading potential file Al_jpc.agni with DATE: 2017-02-24

neighbor 0.3 bin
neigh_modify delay 2 check yes

timestep 0.0005
velocity all create 500 12345
fix 1 all nvt temp 250 250 0.2
fix 5 all momentum 1 linear 1 1 1

thermo 100
thermo_style custom step ke temp

# dump MyDump all custom 250 dump.atoms id type x y z vx vy vz fx fy fz

run 1000
Neighbor list info ...
  update every 1 steps, delay 2 steps, check yes
  max neighbors/atom: 2000, page size: 100000
  master list distance cutoff = 8.3
  ghost atom cutoff = 8.3
  binsize = 4.15, bins = 5 4 10
  1 neighbor lists, perpetual/occasional/extra = 1 0 0
  (1) pair agni, perpetual
      attributes: full, newton on
      pair build: full/bin/atomonly
      stencil: full/bin/3d
      bin: standard
Per MPI rank memory allocation (min/avg/max) = 2.694 | 2.881 | 3.069 Mbytes
Step KinEng Temp 
       0    11.633413          500 
     100    4.6059941    197.96401 
     200    7.3700152    316.76066 
     300    6.0443913    259.78581 
     400    6.1631192    264.88869 
     500     6.264728     269.2558 
     600    5.2732539     226.6426 
     700    5.6514476    242.89723 
     800    6.5572407     281.8279 
     900     6.057674     260.3567 
    1000    6.5622227    282.04202 
Loop time of 6.42904 on 8 procs for 1000 steps with 181 atoms

Performance: 6.720 ns/day, 3.572 hours/ns, 155.544 timesteps/s
100.0% CPU use with 8 MPI tasks x no OpenMP threads

MPI task timing breakdown:
Section |  min time  |  avg time  |  max time  |%varavg| %total
---------------------------------------------------------------
Pair    | 5.0149     | 5.3547     | 5.704      |  10.6 | 83.29
Neigh   | 0.0027345  | 0.0029262  | 0.0030651  |   0.2 |  0.05
Comm    | 0.71056    | 1.0599     | 1.3994     |  23.7 | 16.49
Output  | 0.00010816 | 0.00012118 | 0.00016401 |   0.0 |  0.00
Modify  | 0.0079744  | 0.008137   | 0.008249   |   0.1 |  0.13
Other   |            | 0.003347   |            |       |  0.05

Nlocal:    22.625 ave 28 max 20 min
Histogram: 2 1 1 2 0 1 0 0 0 1
Nghost:    324.625 ave 327 max 317 min
Histogram: 1 0 0 0 1 0 0 0 0 6
Neighs:    0 ave 0 max 0 min
Histogram: 8 0 0 0 0 0 0 0 0 0
FullNghs:  2435.5 ave 3017 max 2166 min
Histogram: 3 0 1 1 2 0 0 0 0 1

Total # of neighbors = 19484
Ave neighs/atom = 107.646
Neighbor list builds = 33
Dangerous builds = 0

Please see the log.cite file for references relevant to this simulation

Total wall time: 0:00:06
