LAMMPS (4 Jan 2019)

units metal
boundary p p p
read_data vacancy.data
  orthogonal box = (0 0 0) to (8.07113 8.07113 8.07113)
  2 by 2 by 2 MPI processor grid
  reading atoms ...
  31 atoms

pair_style agni
pair_coeff * * Al_jpc.agni Al
Reading potential file Al_jpc.agni with DATE: 2017-02-24
neighbor 0.3 bin
neigh_modify delay 2 check yes


timestep 0.0005
velocity all create 1000 12345
fix 1 all nvt temp 900 900 200
fix 5 all momentum 1 linear 1 1 1


thermo 100
thermo_style custom step ke etotal temp

# dump MyDump all custom 250 dump.atoms id type x y z vx vy vz fx fy fz

run 1000
Neighbor list info ...
  update every 1 steps, delay 2 steps, check yes
  max neighbors/atom: 2000, page size: 100000
  master list distance cutoff = 8.3
  ghost atom cutoff = 8.3
  binsize = 4.15, bins = 2 2 2
  1 neighbor lists, perpetual/occasional/extra = 1 0 0
  (1) pair agni, perpetual
      attributes: full, newton on
      pair build: full/bin/atomonly
      stencil: full/bin/3d
      bin: standard
Per MPI rank memory allocation (min/avg/max) = 2.731 | 2.793 | 2.981 Mbytes
Step KinEng TotEng Temp 
       0    3.8778043    3.8778043         1000 
     100    2.9986261    2.9986261    773.27936 
     200    3.6860312    3.6860312    950.54595 
     300    3.8133152    3.8133152    983.36966 
     400     3.733028     3.733028    962.66538 
     500    3.5875466    3.5875466    925.14895 
     600    3.5331517    3.5331517     911.1217 
     700     2.650945     2.650945    683.62011 
     800    3.3763498    3.3763498    870.68597 
     900    3.9036734    3.9036734    1006.6711 
    1000    3.0884823    3.0884823    796.45129 
Loop time of 1.3432 on 8 procs for 1000 steps with 31 atoms

Performance: 32.162 ns/day, 0.746 hours/ns, 744.491 timesteps/s
99.9% CPU use with 8 MPI tasks x no OpenMP threads

MPI task timing breakdown:
Section |  min time  |  avg time  |  max time  |%varavg| %total
---------------------------------------------------------------
Pair    | 0.80585    | 0.90904    | 1.0203     |   7.3 | 67.68
Neigh   | 0.0015406  | 0.0016877  | 0.0018742  |   0.3 |  0.13
Comm    | 0.31054    | 0.42224    | 0.52524    |  10.8 | 31.44
Output  | 0.00012319 | 0.00013209 | 0.00016269 |   0.0 |  0.01
Modify  | 0.0066629  | 0.0069472  | 0.0072315  |   0.3 |  0.52
Other   |            | 0.003159   |            |       |  0.24

Nlocal:    3.875 ave 5 max 2 min
Histogram: 1 0 0 1 0 0 4 0 0 2
Nghost:    518 ave 534 max 507 min
Histogram: 3 1 0 0 0 1 0 2 0 1
Neighs:    0 ave 0 max 0 min
Histogram: 8 0 0 0 0 0 0 0 0 0
FullNghs:  545 ave 705 max 288 min
Histogram: 1 0 0 1 0 0 4 0 0 2

Total # of neighbors = 4360
Ave neighs/atom = 140.645
Neighbor list builds = 53
Dangerous builds = 0

Please see the log.cite file for references relevant to this simulation

Total wall time: 0:00:01
