LAMMPS (2 Aug 2023 - Development - bc02a7cc6)

processors * * 1
units metal
boundary p p f
read_data adatom.data
Reading data file ...
  orthogonal box = (0 0 0) to (17.121441 14.827603 39.319732)
  4 by 2 by 1 MPI processor grid
  reading atoms ...
  181 atoms
  read_data CPU = 0.003 seconds

pair_style agni
pair_coeff * * Al_jpc.agni Al
Reading agni potential file Al_jpc.agni with DATE: 2017-02-24
WARNING: Ignoring unknown tag 'Rs' in AGNI potential file. (src/MISC/pair_agni.cpp:348)
WARNING: Ignoring unknown tag 'neighbors' in AGNI potential file. (src/MISC/pair_agni.cpp:348)
WARNING: Ignoring unknown tag 'lambda' in AGNI potential file. (src/MISC/pair_agni.cpp:348)

neighbor 0.3 bin
neigh_modify delay 2 check yes

timestep 0.0005
velocity all create 500 12345
fix 1 all nvt temp 250 250 0.2
fix 5 all momentum 1 linear 1 1 1

thermo 100
thermo_style custom step ke temp

# dump MyDump all custom 250 dump.atoms id type x y z vx vy vz fx fy fz

run 1000

CITE-CITE-CITE-CITE-CITE-CITE-CITE-CITE-CITE-CITE-CITE-CITE-CITE

Your simulation uses code contributions which should be cited:

- pair agni command: doi:10.1021/acs.jpcc.9b04207

@article{huan2019jpc,
 author    = {Huan, T. and Batra, R. and Chapman, J. and Kim, C. and Chandrasekaran, A. and Ramprasad, Rampi},
 journal   = {J.~Phys.\ Chem.~C},
 volume    = {123},
 number    = {34},
 pages     = {20715--20722},
 year      = {2019},
}

CITE-CITE-CITE-CITE-CITE-CITE-CITE-CITE-CITE-CITE-CITE-CITE-CITE

Neighbor list info ...
  update: every = 1 steps, delay = 2 steps, check = yes
  max neighbors/atom: 2000, page size: 100000
  master list distance cutoff = 8.3
  ghost atom cutoff = 8.3
  binsize = 4.15, bins = 5 4 10
  1 neighbor lists, perpetual/occasional/extra = 1 0 0
  (1) pair agni, perpetual
      attributes: full, newton on
      pair build: full/bin/atomonly
      stencil: full/bin/3d
      bin: standard
Per MPI rank memory allocation (min/avg/max) = 3.07 | 3.07 | 3.07 Mbytes
   Step         KinEng          Temp     
         0   11.633413      500          
       100   4.6059937      197.96399    
       200   7.3700151      316.76066    
       300   6.044391       259.7858     
       400   6.1631192      264.88869    
       500   6.2647287      269.25583    
       600   5.2732539      226.6426     
       700   5.6514475      242.89723    
       800   6.5572411      281.82791    
       900   6.0576727      260.35664    
      1000   6.5622226      282.04202    
Loop time of 4.47212 on 8 procs for 1000 steps with 181 atoms

Performance: 9.660 ns/day, 2.485 hours/ns, 223.608 timesteps/s, 40.473 katom-step/s
99.9% CPU use with 8 MPI tasks x no OpenMP threads

MPI task timing breakdown:
Section |  min time  |  avg time  |  max time  |%varavg| %total
---------------------------------------------------------------
Pair    | 3.5499     | 3.7324     | 3.9295     |   7.7 | 83.46
Neigh   | 0.0029799  | 0.0031504  | 0.0033261  |   0.2 |  0.07
Comm    | 0.52603    | 0.72287    | 0.90536    |  17.4 | 16.16
Output  | 0.00024301 | 0.00029435 | 0.00048509 |   0.0 |  0.01
Modify  | 0.0091103  | 0.009359   | 0.0096752  |   0.2 |  0.21
Other   |            | 0.00402    |            |       |  0.09

Nlocal:         22.625 ave          28 max          20 min
Histogram: 2 1 1 2 0 1 0 0 0 1
Nghost:        324.625 ave         327 max         317 min
Histogram: 1 0 0 0 1 0 0 0 0 6
Neighs:              0 ave           0 max           0 min
Histogram: 8 0 0 0 0 0 0 0 0 0
FullNghs:       2435.5 ave        3017 max        2166 min
Histogram: 3 0 1 1 2 0 0 0 0 1

Total # of neighbors = 19484
Ave neighs/atom = 107.64641
Neighbor list builds = 33
Dangerous builds = 0
Total wall time: 0:00:04
