LAMMPS (4 Jan 2019)
# Streitz-Mintmire potential with alpha-alumina
# option to use with Ewald or Wolf sum
# EAM (AlO.eam.alloy) includes 1994 SM and 2004 Zhou versions
# Streitz Mintmire (coul/streitz) does not include 2004 Zhou modifications
# Contributing authors: Ray Shan, Chris Weinberger (Sandia)

units		metal
atom_style	charge
dimension       3
boundary        p p p

read_data    	data.streitz
  orthogonal box = (0 0 0) to (24.7337 28.56 25.9798)
  2 by 2 by 2 MPI processor grid
  reading atoms ...
  2160 atoms

group    	type1 type 1
864 atoms in group type1
compute   	charge1 type1 property/atom q
compute   	q1 type1 reduce ave c_charge1
group    	type2 type 2
1296 atoms in group type2
compute   	charge2 type2 property/atom q
compute   	q2 type2 reduce ave c_charge2

variable   	qcat equal 2.8
variable  	qani equal -${qcat}*count(type1)/count(type2)
variable  	qani equal -2.8*count(type1)/count(type2)
set   		group type1 charge ${qcat}
set   		group type1 charge 2.8
  864 settings made for charge
set   		group type2 charge ${qani}
set   		group type2 charge -1.86666666666667
  1296 settings made for charge
variable   	qsum equal count(type1)*c_q1+count(type2)*c_q2

# Ewald sum for coul/streitz
pair_style  	hybrid/overlay coul/streitz 12.0 ewald eam/alloy
kspace_style  	ewald 1e-6

# Wolf sum for coul/streitz
#pair_style  	hybrid/overlay coul/streitz 12.0 wolf 0.31 eam/alloy

pair_coeff   	* * coul/streitz AlO.streitz Al O
pair_coeff   	* * eam/alloy AlO.eam.alloy Al O
Reading potential file AlO.eam.alloy with DATE: 2015-02-19

neighbor	1.0 bin
neigh_modify	every 10 delay 0 check yes
timestep        0.0004

thermo_style	custom step temp etotal pe evdwl ecoul elong                 c_q1 c_q2 v_qsum press
thermo_modify  	norm yes
thermo   	1

velocity  	all create 300.0 42128
fix     	1 all qeq/slater 1 12.0 1.0e-6 100 coul/streitz
fix     	2 all nve

run    		5
Ewald initialization ...
  using 12-bit tables for long-range coulomb (../kspace.cpp:321)
  G vector (1/distance) = 0.310132
  estimated absolute RMS force accuracy = 1.9688e-05
  estimated relative force accuracy = 1.36725e-06
  KSpace vectors: actual max1d max3d = 2541 11 6083
                  kxmax kymax kzmax  = 10 11 10
Neighbor list info ...
  update every 10 steps, delay 0 steps, check yes
  max neighbors/atom: 2000, page size: 100000
  master list distance cutoff = 13
  ghost atom cutoff = 13
  binsize = 6.5, bins = 4 5 4
  3 neighbor lists, perpetual/occasional/extra = 3 0 0
  (1) pair coul/streitz, perpetual
      attributes: full, newton on
      pair build: full/bin/atomonly
      stencil: full/bin/3d
      bin: standard
  (2) pair eam/alloy, perpetual, half/full from (1)
      attributes: half, newton on
      pair build: halffull/newton
      stencil: none
      bin: none
  (3) fix qeq/slater, perpetual, copy from (1)
      attributes: full, newton on
      pair build: copy
      stencil: none
      bin: none
Per MPI rank memory allocation (min/avg/max) = 30.94 | 31.59 | 32.25 Mbytes
Step Temp TotEng PotEng E_vdwl E_coul E_long c_q1 c_q2 v_qsum Press 
       0          300   -6.3402658   -6.3790259   -2.7952901    10.218189   -13.801925    2.8665317   -1.9110211            0     -26072.6 
       1    299.29736   -6.3402857   -6.3789551   -2.7952179    10.205019   -13.788756     2.865162    -1.910108            0   -25082.537 
       2    298.08971   -6.3403016   -6.3788149   -2.7950441    10.193833   -13.777604    2.8639976   -1.9093317 4.5474735e-13   -24188.998 
       3     296.3883   -6.3403096   -6.3786031   -2.7947701    10.187938   -13.771771    2.8633819   -1.9089213 -4.5474735e-13   -23631.763 
       4     294.2084   -6.3403119   -6.3783238   -2.7943977    10.186245   -13.770171    2.8632028   -1.9088019            0   -23333.028 
       5     291.5694   -6.3403113   -6.3779821   -2.7939296    10.186878   -13.770931    2.8632654   -1.9088436 -4.5474735e-13   -23158.412 
Loop time of 0.734849 on 8 procs for 5 steps with 2160 atoms

Performance: 0.235 ns/day, 102.062 hours/ns, 6.804 timesteps/s
99.0% CPU use with 8 MPI tasks x no OpenMP threads

MPI task timing breakdown:
Section |  min time  |  avg time  |  max time  |%varavg| %total
---------------------------------------------------------------
Pair    | 0.23714    | 0.23862    | 0.24013    |   0.2 | 32.47
Kspace  | 0.030905   | 0.032037   | 0.033504   |   0.5 |  4.36
Neigh   | 0          | 0          | 0          |   0.0 |  0.00
Comm    | 0.0017     | 0.0046767  | 0.0073062  |   2.8 |  0.64
Output  | 0.00036606 | 0.00037742 | 0.00042445 |   0.0 |  0.05
Modify  | 0.45908    | 0.45909    | 0.45911    |   0.0 | 62.47
Other   |            | 4.569e-05  |            |       |  0.01

Nlocal:    270 ave 288 max 252 min
Histogram: 4 0 0 0 0 0 0 0 0 4
Nghost:    6946.5 ave 6964 max 6929 min
Histogram: 4 0 0 0 0 0 0 0 0 4
Neighs:    147366 ave 157188 max 137544 min
Histogram: 4 0 0 0 0 0 0 0 0 4
FullNghs:  294732 ave 314376 max 275088 min
Histogram: 4 0 0 0 0 0 0 0 0 4

Total # of neighbors = 2357856
Ave neighs/atom = 1091.6
Neighbor list builds = 0
Dangerous builds = 0
Total wall time: 0:00:00
