LAMMPS (2 Aug 2023 - Development - bc02a7cc6)
# Streitz-Mintmire potential with alpha-alumina
# option to use with Ewald or Wolf sum
# EAM (AlO.eam.alloy) includes 1994 SM and 2004 Zhou versions
# Streitz Mintmire (coul/streitz) does not include 2004 Zhou modifications
# Contributing authors: Ray Shan, Chris Weinberger (Sandia)

units		metal
atom_style	charge
dimension       3
boundary        p p p

read_data    	data.streitz
Reading data file ...
  orthogonal box = (0 0 0) to (24.733686 28.56 25.9798)
  2 by 2 by 2 MPI processor grid
  reading atoms ...
  2160 atoms
  read_data CPU = 0.013 seconds

group    	type1 type 1
864 atoms in group type1
compute   	charge1 type1 property/atom q
compute   	q1 type1 reduce ave c_charge1
group    	type2 type 2
1296 atoms in group type2
compute   	charge2 type2 property/atom q
compute   	q2 type2 reduce ave c_charge2

variable   	qcat equal 2.8
variable  	qani equal -${qcat}*count(type1)/count(type2)
variable  	qani equal -2.8*count(type1)/count(type2)
set   		group type1 charge ${qcat}
set   		group type1 charge 2.8
Setting atom values ...
  864 settings made for charge
set   		group type2 charge ${qani}
set   		group type2 charge -1.86666666666667
Setting atom values ...
  1296 settings made for charge
variable   	qsum equal count(type1)*c_q1+count(type2)*c_q2

# Ewald sum for coul/streitz
#pair_style  	hybrid/overlay coul/streitz 12.0 ewald eam/alloy
#kspace_style  	ewald 1e-6

# Wolf sum for coul/streitz
pair_style  	hybrid/overlay coul/streitz 12.0 wolf 0.31 eam/alloy

pair_coeff   	* * coul/streitz AlO.streitz Al O
Reading coul/streitz potential file AlO.streitz with DATE: 2015-02-19
pair_coeff   	* * eam/alloy AlO.eam.alloy Al O
Reading eam/alloy potential file AlO.eam.alloy with DATE: 2015-02-19

neighbor	1.0 bin
neigh_modify	every 10 delay 0 check yes
timestep        0.0004

thermo_style	custom step temp etotal pe evdwl ecoul elong                 c_q1 c_q2 v_qsum press
thermo_modify  	norm yes
thermo   	1

velocity  	all create 300.0 42128
fix     	1 all qeq/slater 1 12.0 1.0e-6 100 coul/streitz
fix     	2 all nve

run    		5
Neighbor list info ...
  update: every = 10 steps, delay = 0 steps, check = yes
  max neighbors/atom: 2000, page size: 100000
  master list distance cutoff = 13
  ghost atom cutoff = 13
  binsize = 6.5, bins = 4 5 4
  3 neighbor lists, perpetual/occasional/extra = 3 0 0
  (1) pair coul/streitz, perpetual
      attributes: full, newton on
      pair build: full/bin/atomonly
      stencil: full/bin/3d
      bin: standard
  (2) pair eam/alloy, perpetual, half/full trim from (1)
      attributes: half, newton on, cut 9.4146875
      pair build: halffull/newton/trim
      stencil: none
      bin: none
  (3) fix qeq/slater, perpetual, copy from (1)
      attributes: full, newton on
      pair build: copy
      stencil: none
      bin: none
Per MPI rank memory allocation (min/avg/max) = 12.83 | 13.48 | 14.13 Mbytes
   Step          Temp          TotEng         PotEng         E_vdwl         E_coul         E_long          c_q1           c_q2          v_qsum         Press     
         0   300           -6.3403863     -6.3791464     -2.7952901     -3.5838563      0              2.8665317     -1.9110211     -4.5474735e-13 -25874.957    
         1   299.30143     -6.3404062     -6.3790761     -2.7952178     -3.5838582      0              2.865162      -1.910108       0             -24885.364    
         2   298.1021      -6.3404215     -6.3789364     -2.795044      -3.5838923      0              2.8639973     -1.9093315      4.5474735e-13 -23991.911    
         3   296.41314     -6.3404282     -6.3787248     -2.7947699     -3.5839549      0              2.8633815     -1.908921      -4.5474735e-13 -23434.352    
         4   294.24968     -6.3404286     -6.3784457     -2.7943973     -3.5840484      0              2.8632023     -1.9088015      0             -23134.998    
         5   291.63102     -6.3404254     -6.3781042     -2.793929      -3.5841752      0              2.8632638     -1.9088425      0             -22958.772    
Loop time of 1.03761 on 8 procs for 5 steps with 2160 atoms

Performance: 0.167 ns/day, 144.112 hours/ns, 4.819 timesteps/s, 10.409 katom-step/s
98.9% CPU use with 8 MPI tasks x no OpenMP threads

MPI task timing breakdown:
Section |  min time  |  avg time  |  max time  |%varavg| %total
---------------------------------------------------------------
Pair    | 0.42076    | 0.42447    | 0.43011    |   0.5 | 40.91
Neigh   | 0          | 0          | 0          |   0.0 |  0.00
Comm    | 0.0021448  | 0.0076996  | 0.011484   |   3.3 |  0.74
Output  | 0.0006449  | 0.00073658 | 0.00079144 |   0.0 |  0.07
Modify  | 0.60447    | 0.60449    | 0.60451    |   0.0 | 58.26
Other   |            | 0.0002149  |            |       |  0.02

Nlocal:            270 ave         288 max         252 min
Histogram: 4 0 0 0 0 0 0 0 0 4
Nghost:         6946.5 ave        6964 max        6929 min
Histogram: 4 0 0 0 0 0 0 0 0 4
Neighs:          55836 ave       59532 max       52140 min
Histogram: 4 0 0 0 0 0 0 0 0 4
FullNghs:       294732 ave      314376 max      275088 min
Histogram: 4 0 0 0 0 0 0 0 0 4

Total # of neighbors = 2357856
Ave neighs/atom = 1091.6
Neighbor list builds = 0
Dangerous builds = 0
Total wall time: 0:00:01
