LAMMPS (4 Jan 2019)
# 3d Lennard-Jones melt

units		lj
atom_style	atomic

lattice		fcc 0.8442
Lattice spacing in x,y,z = 1.6796 1.6796 1.6796
region		box block 0 10 0 10 0 10
create_box	1 box
Created orthogonal box = (0 0 0) to (16.796 16.796 16.796)
  2 by 2 by 2 MPI processor grid
create_atoms	1 box
Created 4000 atoms
  Time spent = 0.00109711 secs
mass		* 1.0

velocity	all create 3.0 87287

pair_style	python 2.5
pair_coeff	* * py_pot.LJCutMelt lj

neighbor	0.3 bin
neigh_modify	every 20 delay 0 check no

fix		1 all nve

thermo		50
run		250
Neighbor list info ...
  update every 20 steps, delay 0 steps, check no
  max neighbors/atom: 2000, page size: 100000
  master list distance cutoff = 2.8
  ghost atom cutoff = 2.8
  binsize = 1.4, bins = 12 12 12
  1 neighbor lists, perpetual/occasional/extra = 1 0 0
  (1) pair python, perpetual
      attributes: half, newton on
      pair build: half/bin/atomonly/newton
      stencil: half/bin/3d/newton
      bin: standard
Per MPI rank memory allocation (min/avg/max) = 2.645 | 2.645 | 2.645 Mbytes
Step Temp E_pair E_mol TotEng Press 
       0            3   -6.7733681            0   -2.2744931   -3.7033504 
      50    1.6651219   -4.7800507            0   -2.2829922    5.6676155 
     100     1.659692   -4.7700783            0   -2.2811627     5.749944 
     150     1.652159   -4.7594098            0   -2.2817909    5.8299095 
     200    1.6421383   -4.7441555            0   -2.2815638    5.8720606 
     250    1.6597903   -4.7697969            0   -2.2807338    5.7747105 
Loop time of 2.83901 on 8 procs for 250 steps with 4000 atoms

Performance: 38041.460 tau/day, 88.059 timesteps/s
99.7% CPU use with 8 MPI tasks x no OpenMP threads

MPI task timing breakdown:
Section |  min time  |  avg time  |  max time  |%varavg| %total
---------------------------------------------------------------
Pair    | 2.4606     | 2.6186     | 2.7449     |   7.1 | 92.24
Neigh   | 0.01155    | 0.011742   | 0.011891   |   0.1 |  0.41
Comm    | 0.079919   | 0.20634    | 0.36457    |  25.2 |  7.27
Output  | 0.00013202 | 0.00015574 | 0.0001895  |   0.0 |  0.01
Modify  | 0.0016948  | 0.0017402  | 0.0017774  |   0.1 |  0.06
Other   |            | 0.0003922  |            |       |  0.01

Nlocal:    500 ave 507 max 491 min
Histogram: 1 0 1 1 0 0 2 1 1 1
Nghost:    1812.75 ave 1827 max 1799 min
Histogram: 1 0 0 3 0 1 1 1 0 1
Neighs:    18971.1 ave 19624 max 18242 min
Histogram: 1 1 0 1 1 1 0 0 1 2

Total # of neighbors = 151769
Ave neighs/atom = 37.9423
Neighbor list builds = 12
Dangerous builds not checked

write_data      melt.data
write_restart   melt.restart

clear

read_restart    melt.restart
  restoring atom style atomic from restart
  orthogonal box = (0 0 0) to (16.796 16.796 16.796)
  2 by 2 by 2 MPI processor grid
  pair style python stores no restart info
  4000 atoms

pair_style	python 2.5
pair_coeff	* * py_pot.LJCutMelt lj

fix		1 all nve

thermo		50
run		250
Neighbor list info ...
  update every 1 steps, delay 10 steps, check yes
  max neighbors/atom: 2000, page size: 100000
  master list distance cutoff = 2.8
  ghost atom cutoff = 2.8
  binsize = 1.4, bins = 12 12 12
  1 neighbor lists, perpetual/occasional/extra = 1 0 0
  (1) pair python, perpetual
      attributes: half, newton on
      pair build: half/bin/atomonly/newton
      stencil: half/bin/3d/newton
      bin: standard
Per MPI rank memory allocation (min/avg/max) = 2.765 | 2.765 | 2.766 Mbytes
Step Temp E_pair E_mol TotEng Press 
     250    1.6597903   -4.7697969            0   -2.2807338    5.7747105 
     300    1.6294773   -4.7244964            0   -2.2808914    5.9577803 
     350     1.665731    -4.779083            0   -2.2811112    5.7547447 
     400    1.6387992   -4.7387931            0   -2.2812088    5.9087535 
     450    1.6536604   -4.7603415            0    -2.280471    5.8331849 
     500    1.6611114   -4.7732987            0   -2.2822546    5.7594039 
Loop time of 2.80733 on 8 procs for 250 steps with 4000 atoms

Performance: 38470.725 tau/day, 89.053 timesteps/s
99.7% CPU use with 8 MPI tasks x no OpenMP threads

MPI task timing breakdown:
Section |  min time  |  avg time  |  max time  |%varavg| %total
---------------------------------------------------------------
Pair    | 2.5107     | 2.593      | 2.7231     |   4.4 | 92.36
Neigh   | 0.02393    | 0.024229   | 0.024488   |   0.1 |  0.86
Comm    | 0.057333   | 0.18746    | 0.26998    |  16.4 |  6.68
Output  | 0.00014706 | 0.00016558 | 0.00019034 |   0.0 |  0.01
Modify  | 0.0017582  | 0.0018     | 0.0019105  |   0.1 |  0.06
Other   |            | 0.0007121  |            |       |  0.03

Nlocal:    500 ave 515 max 489 min
Histogram: 1 1 1 1 1 2 0 0 0 1
Nghost:    1815.75 ave 1834 max 1795 min
Histogram: 1 0 0 1 1 2 1 0 1 1
Neighs:    18931.9 ave 20016 max 18530 min
Histogram: 2 2 2 1 0 0 0 0 0 1

Total # of neighbors = 151455
Ave neighs/atom = 37.8638
Neighbor list builds = 25
Dangerous builds = 25

clear

units		lj
atom_style	atomic

read_data       melt.data
  orthogonal box = (0 0 0) to (16.796 16.796 16.796)
  2 by 2 by 2 MPI processor grid
  reading atoms ...
  4000 atoms
  reading velocities ...
  4000 velocities

pair_style	python 2.5
pair_coeff	* * py_pot.LJCutMelt lj

neighbor	0.3 bin
neigh_modify	every 20 delay 0 check no

fix		1 all nve

thermo		50
run		250
Neighbor list info ...
  update every 20 steps, delay 0 steps, check no
  max neighbors/atom: 2000, page size: 100000
  master list distance cutoff = 2.8
  ghost atom cutoff = 2.8
  binsize = 1.4, bins = 12 12 12
  1 neighbor lists, perpetual/occasional/extra = 1 0 0
  (1) pair python, perpetual
      attributes: half, newton on
      pair build: half/bin/atomonly/newton
      stencil: half/bin/3d/newton
      bin: standard
Per MPI rank memory allocation (min/avg/max) = 2.265 | 2.265 | 2.266 Mbytes
Step Temp E_pair E_mol TotEng Press 
       0    1.6597903   -4.7697969            0   -2.2807338    5.7747105 
      50    1.6293753     -4.72456            0   -2.2811081    5.9573467 
     100    1.6654545   -4.7792706            0   -2.2817134    5.7536054 
     150    1.6384743   -4.7391803            0   -2.2820833    5.9067285 
     200    1.6526459   -4.7600395            0   -2.2816904    5.8331512 
     250    1.6616554   -4.7754249            0   -2.2835649    5.7501707 
Loop time of 2.65118 on 8 procs for 250 steps with 4000 atoms

Performance: 40736.572 tau/day, 94.298 timesteps/s
99.9% CPU use with 8 MPI tasks x no OpenMP threads

MPI task timing breakdown:
Section |  min time  |  avg time  |  max time  |%varavg| %total
---------------------------------------------------------------
Pair    | 2.4189     | 2.4941     | 2.5518     |   3.0 | 94.07
Neigh   | 0.011137   | 0.011485   | 0.01172    |   0.2 |  0.43
Comm    | 0.085345   | 0.1433     | 0.21835    |  12.7 |  5.41
Output  | 0.00015886 | 0.00017702 | 0.00021578 |   0.0 |  0.01
Modify  | 0.0017176  | 0.0017676  | 0.001816   |   0.1 |  0.07
Other   |            | 0.0003852  |            |       |  0.01

Nlocal:    500 ave 516 max 493 min
Histogram: 5 0 0 0 0 1 1 0 0 1
Nghost:    1819 ave 1835 max 1798 min
Histogram: 1 0 1 1 0 2 0 0 1 2
Neighs:    18926.5 ave 20085 max 18177 min
Histogram: 1 0 3 1 1 1 0 0 0 1

Total # of neighbors = 151412
Ave neighs/atom = 37.853
Neighbor list builds = 12
Dangerous builds not checked

shell rm melt.data melt.restart
Total wall time: 0:00:08
