LAMMPS (4 Jan 2019)
# 3d Lennard-Jones melt with Python functions added

units		lj
atom_style	atomic

lattice		fcc 0.8442
Lattice spacing in x,y,z = 1.6796 1.6796 1.6796
region		box block 0 10 0 10 0 10
create_box	1 box
Created orthogonal box = (0 0 0) to (16.796 16.796 16.796)
  2 by 2 by 2 MPI processor grid
create_atoms	1 box
Created 4000 atoms
  Time spent = 0.000710852 secs
mass		1 1.0

velocity	all create 1.44 87287 loop geom

pair_style	lj/cut 2.5
pair_coeff	1 1 1.0 1.0 2.5

neighbor	0.3 bin
neigh_modify	delay 0 every 1 check yes

fix		1 all nve

run		10
Neighbor list info ...
  update every 1 steps, delay 0 steps, check yes
  max neighbors/atom: 2000, page size: 100000
  master list distance cutoff = 2.8
  ghost atom cutoff = 2.8
  binsize = 1.4, bins = 12 12 12
  1 neighbor lists, perpetual/occasional/extra = 1 0 0
  (1) pair lj/cut, perpetual
      attributes: half, newton on
      pair build: half/bin/atomonly/newton
      stencil: half/bin/3d/newton
      bin: standard
Per MPI rank memory allocation (min/avg/max) = 3.145 | 3.145 | 3.145 Mbytes
Step Temp E_pair E_mol TotEng Press 
       0         1.44   -6.7733681            0   -4.6139081   -5.0199732 
      10    1.1259767   -6.3010653            0   -4.6125225   -2.5704638 
Loop time of 0.00692149 on 8 procs for 10 steps with 4000 atoms

Performance: 624142.900 tau/day, 1444.775 timesteps/s
100.0% CPU use with 8 MPI tasks x no OpenMP threads

MPI task timing breakdown:
Section |  min time  |  avg time  |  max time  |%varavg| %total
---------------------------------------------------------------
Pair    | 0.0026593  | 0.0031684  | 0.0036377  |   0.6 | 45.78
Neigh   | 0.00088088 | 0.00090875 | 0.00096898 |   0.0 | 13.13
Comm    | 0.0021531  | 0.0025594  | 0.0030823  |   0.6 | 36.98
Output  | 2.5104e-05 | 2.8561e-05 | 3.3856e-05 |   0.0 |  0.41
Modify  | 6.7008e-05 | 8.3078e-05 | 9.7772e-05 |   0.0 |  1.20
Other   |            | 0.0001733  |            |       |  2.50

Nlocal:    500 ave 516 max 490 min
Histogram: 1 0 2 3 0 1 0 0 0 1
Nghost:    1956 ave 1966 max 1940 min
Histogram: 1 0 0 0 1 0 3 2 0 1
Neighs:    19498 ave 19872 max 19000 min
Histogram: 1 0 1 0 1 1 1 0 1 2

Total # of neighbors = 155984
Ave neighs/atom = 38.996
Neighbor list builds = 1
Dangerous builds = 0

# 1st Python function
# example of catching a syntax error

python          simple here """
from __future__ import print_function
def simple():
  print("Inside simple function")
  try:
    foo += 1
  except Exception as e:
    print("FOO error:", e)
"""

python          simple invoke

# 2nd Python function
# example of returning the function value to a python-style variable
# invoke it twice

variable        fact python factorial
python          factorial input 1 v_n return v_fact format ii here """
def factorial(n):
  if n == 1: return 1
  return n*factorial(n-1)
"""

variable        n string 10
python          factorial invoke
print           "Factorial of $n = ${fact}"
Factorial of 10 = 3628800

variable        n string 20
python          factorial invoke
print           "Factorial of $n = ${fact}"
Factorial of 20 = 2432902008176640000

# 3rd Python function
# example of calling back to LAMMPS and writing a run loop in Python

variable        cut string 0.0

python          loop input 4 10 1.0 -4.0 SELF format iffp file funcs.py
python          loop invoke
pair_style lj/cut ${cut}
pair_style lj/cut 1.0
pair_coeff * * 1.0 1.0
run 10
Per MPI rank memory allocation (min/avg/max) = 3.164 | 3.164 | 3.164 Mbytes
Step Temp E_pair E_mol TotEng Press 
      10    1.1259767  0.016557378            0    1.7051002    1.2784679 
      20   0.87608998   0.39300382            0    1.7068103    6.0488236 
Loop time of 0.00113495 on 8 procs for 10 steps with 4000 atoms

Performance: 3806349.728 tau/day, 8810.995 timesteps/s
100.2% CPU use with 8 MPI tasks x no OpenMP threads

MPI task timing breakdown:
Section |  min time  |  avg time  |  max time  |%varavg| %total
---------------------------------------------------------------
Pair    | 0.00017047 | 0.00018085 | 0.00019669 |   0.0 | 15.94
Neigh   | 0.00028061 | 0.00028661 | 0.00030074 |   0.0 | 25.25
Comm    | 0.00047598 | 0.00049377 | 0.00050705 |   0.0 | 43.51
Output  | 2.2949e-05 | 2.5145e-05 | 2.8355e-05 |   0.0 |  2.22
Modify  | 6.9596e-05 | 7.1182e-05 | 7.3636e-05 |   0.0 |  6.27
Other   |            | 7.738e-05  |            |       |  6.82

Nlocal:    500 ave 515 max 492 min
Histogram: 2 1 0 2 2 0 0 0 0 1
Nghost:    598 ave 606 max 583 min
Histogram: 1 0 0 0 0 2 2 0 1 2
Neighs:    2215.88 ave 2258 max 2146 min
Histogram: 1 0 1 0 0 1 2 0 1 2

Total # of neighbors = 17727
Ave neighs/atom = 4.43175
Neighbor list builds = 1
Dangerous builds = 0
pair_style lj/cut ${cut}
pair_style lj/cut 1.1
pair_coeff * * 1.0 1.0
run 10
Per MPI rank memory allocation (min/avg/max) = 3.164 | 3.164 | 3.164 Mbytes
Step Temp E_pair E_mol TotEng Press 
      20   0.87608998  -0.33042884            0    0.9833776    8.5817494 
      30    1.0155079  -0.83166219            0   0.69121891    7.9905553 
Loop time of 0.00137065 on 8 procs for 10 steps with 4000 atoms

Performance: 3151781.527 tau/day, 7295.791 timesteps/s
100.0% CPU use with 8 MPI tasks x no OpenMP threads

MPI task timing breakdown:
Section |  min time  |  avg time  |  max time  |%varavg| %total
---------------------------------------------------------------
Pair    | 0.00038343 | 0.00040999 | 0.00042474 |   0.0 | 29.91
Neigh   | 0.00030915 | 0.00032016 | 0.00033092 |   0.0 | 23.36
Comm    | 0.00045361 | 0.00047765 | 0.00051246 |   0.0 | 34.85
Output  | 2.2319e-05 | 2.3689e-05 | 2.7444e-05 |   0.0 |  1.73
Modify  | 6.8996e-05 | 7.0396e-05 | 7.2895e-05 |   0.0 |  5.14
Other   |            | 6.876e-05  |            |       |  5.02

Nlocal:    500 ave 511 max 490 min
Histogram: 2 1 0 0 1 1 1 0 1 1
Nghost:    599.125 ave 608 max 588 min
Histogram: 1 1 0 1 0 2 0 0 0 3
Neighs:    2629.5 ave 2707 max 2537 min
Histogram: 1 0 0 1 2 1 1 0 1 1

Total # of neighbors = 21036
Ave neighs/atom = 5.259
Neighbor list builds = 1
Dangerous builds = 0
pair_style lj/cut ${cut}
pair_style lj/cut 1.2
pair_coeff * * 1.0 1.0
run 10
Per MPI rank memory allocation (min/avg/max) = 3.164 | 3.164 | 3.164 Mbytes
Step Temp E_pair E_mol TotEng Press 
      30    1.0155079   -2.0616558            0  -0.53877467    7.6238572 
      40    1.0490928   -2.1868324            0  -0.61358669    7.2084131 
Loop time of 0.00175923 on 8 procs for 10 steps with 4000 atoms

Performance: 2455615.605 tau/day, 5684.295 timesteps/s
96.7% CPU use with 8 MPI tasks x no OpenMP threads

MPI task timing breakdown:
Section |  min time  |  avg time  |  max time  |%varavg| %total
---------------------------------------------------------------
Pair    | 0.00060505 | 0.00062122 | 0.00066131 |   0.0 | 35.31
Neigh   | 0.00032601 | 0.00033668 | 0.00034876 |   0.0 | 19.14
Comm    | 0.00047658 | 0.00051589 | 0.00054062 |   0.0 | 29.32
Output  | 2.1913e-05 | 2.9726e-05 | 3.4869e-05 |   0.0 |  1.69
Modify  | 6.9549e-05 | 0.00015146 | 0.00018475 |   0.0 |  8.61
Other   |            | 0.0001043  |            |       |  5.93

Nlocal:    500 ave 509 max 489 min
Histogram: 1 0 0 2 1 0 1 1 0 2
Nghost:    650.625 ave 661 max 636 min
Histogram: 1 0 0 0 3 1 0 0 1 2
Neighs:    3011.88 ave 3087 max 2956 min
Histogram: 1 2 0 2 0 0 2 0 0 1

Total # of neighbors = 24095
Ave neighs/atom = 6.02375
Neighbor list builds = 1
Dangerous builds = 0
pair_style lj/cut ${cut}
pair_style lj/cut 1.3
pair_coeff * * 1.0 1.0
run 10
Per MPI rank memory allocation (min/avg/max) = 3.164 | 3.164 | 3.164 Mbytes
Step Temp E_pair E_mol TotEng Press 
      40    1.0490928   -3.0667608            0    -1.493515    6.2796311 
      50    1.0764484   -3.1173704            0   -1.5031014    6.0850409 
Loop time of 0.00205074 on 8 procs for 10 steps with 4000 atoms

Performance: 2106561.003 tau/day, 4876.299 timesteps/s
100.0% CPU use with 8 MPI tasks x no OpenMP threads

MPI task timing breakdown:
Section |  min time  |  avg time  |  max time  |%varavg| %total
---------------------------------------------------------------
Pair    | 0.00065356 | 0.00068094 | 0.00073039 |   0.0 | 33.20
Neigh   | 0.00041328 | 0.00043398 | 0.00045717 |   0.0 | 21.16
Comm    | 0.00071057 | 0.00074561 | 0.00079606 |   0.0 | 36.36
Output  | 3.2297e-05 | 3.4018e-05 | 3.7806e-05 |   0.0 |  1.66
Modify  | 6.8424e-05 | 7.3009e-05 | 8.6347e-05 |   0.0 |  3.56
Other   |            | 8.318e-05  |            |       |  4.06

Nlocal:    500 ave 514 max 482 min
Histogram: 1 0 0 1 1 1 1 1 1 1
Nghost:    756.625 ave 771 max 736 min
Histogram: 1 0 0 1 1 0 2 0 2 1
Neighs:    3392.12 ave 3482 max 3224 min
Histogram: 1 0 0 1 0 1 0 1 2 2

Total # of neighbors = 27137
Ave neighs/atom = 6.78425
Neighbor list builds = 1
Dangerous builds = 0
pair_style lj/cut ${cut}
pair_style lj/cut 1.4
pair_coeff * * 1.0 1.0
run 10
Per MPI rank memory allocation (min/avg/max) = 3.164 | 3.164 | 3.164 Mbytes
Step Temp E_pair E_mol TotEng Press 
      50    1.0764484   -3.6112241            0   -1.9969552    5.4223348 
      60    1.1101013   -3.6616014            0   -1.9968657    5.2348251 
Loop time of 0.00208734 on 8 procs for 10 steps with 4000 atoms

Performance: 2069623.453 tau/day, 4790.795 timesteps/s
97.1% CPU use with 8 MPI tasks x no OpenMP threads

MPI task timing breakdown:
Section |  min time  |  avg time  |  max time  |%varavg| %total
---------------------------------------------------------------
Pair    | 0.00072783 | 0.00075352 | 0.00077531 |   0.0 | 36.10
Neigh   | 0.00039533 | 0.0004079  | 0.00043985 |   0.0 | 19.54
Comm    | 0.00071042 | 0.00076023 | 0.00079441 |   0.0 | 36.42
Output  | 2.3592e-05 | 2.5122e-05 | 2.7785e-05 |   0.0 |  1.20
Modify  | 6.8245e-05 | 7.02e-05   | 7.2412e-05 |   0.0 |  3.36
Other   |            | 7.036e-05  |            |       |  3.37

Nlocal:    500 ave 509 max 487 min
Histogram: 2 0 0 1 1 0 0 0 0 4
Nghost:    903.875 ave 922 max 892 min
Histogram: 2 1 1 1 0 0 1 1 0 1
Neighs:    3860.88 ave 3990 max 3794 min
Histogram: 3 1 0 0 1 2 0 0 0 1

Total # of neighbors = 30887
Ave neighs/atom = 7.72175
Neighbor list builds = 1
Dangerous builds = 0
pair_style lj/cut ${cut}
pair_style lj/cut 1.5
pair_coeff * * 1.0 1.0
run 10
Per MPI rank memory allocation (min/avg/max) = 3.164 | 3.164 | 3.164 Mbytes
Step Temp E_pair E_mol TotEng Press 
      60    1.1101013   -3.9655053            0   -2.3007696    4.7849008 
      70    1.1122144   -3.9657095            0    -2.297805    4.8014106 
Loop time of 0.00245833 on 8 procs for 10 steps with 4000 atoms

Performance: 1757292.487 tau/day, 4067.807 timesteps/s
100.0% CPU use with 8 MPI tasks x no OpenMP threads

MPI task timing breakdown:
Section |  min time  |  avg time  |  max time  |%varavg| %total
---------------------------------------------------------------
Pair    | 0.00082574 | 0.00085812 | 0.00089321 |   0.0 | 34.91
Neigh   | 0.00043006 | 0.00045324 | 0.000471   |   0.0 | 18.44
Comm    | 0.00087926 | 0.00094694 | 0.0010119  |   0.0 | 38.52
Output  | 2.1249e-05 | 2.4748e-05 | 2.7121e-05 |   0.0 |  1.01
Modify  | 6.775e-05  | 7.0282e-05 | 7.2368e-05 |   0.0 |  2.86
Other   |            | 0.000105   |            |       |  4.27

Nlocal:    500 ave 514 max 488 min
Histogram: 2 1 1 0 0 0 1 1 1 1
Nghost:    1037.75 ave 1053 max 1019 min
Histogram: 1 0 1 1 0 0 2 2 0 1
Neighs:    4494.88 ave 4607 max 4289 min
Histogram: 1 0 0 1 1 0 1 0 1 3

Total # of neighbors = 35959
Ave neighs/atom = 8.98975
Neighbor list builds = 1
Dangerous builds = 0
pair_style lj/cut ${cut}
pair_style lj/cut 1.6
pair_coeff * * 1.0 1.0
run 10
Per MPI rank memory allocation (min/avg/max) = 3.164 | 3.164 | 3.164 Mbytes
Step Temp E_pair E_mol TotEng Press 
      70    1.1122144   -4.1752688            0   -2.5073643    4.4755409 
      80     1.117224   -4.1831357            0   -2.5077187     4.446079 
Loop time of 0.00270428 on 8 procs for 10 steps with 4000 atoms

Performance: 1597469.622 tau/day, 3697.846 timesteps/s
100.0% CPU use with 8 MPI tasks x no OpenMP threads

MPI task timing breakdown:
Section |  min time  |  avg time  |  max time  |%varavg| %total
---------------------------------------------------------------
Pair    | 0.00099974 | 0.0010345  | 0.0010539  |   0.1 | 38.26
Neigh   | 0.00046408 | 0.00048142 | 0.00051229 |   0.0 | 17.80
Comm    | 0.00098053 | 0.0010234  | 0.0010666  |   0.1 | 37.84
Output  | 2.1652e-05 | 2.3955e-05 | 2.9147e-05 |   0.0 |  0.89
Modify  | 6.7685e-05 | 7.02e-05   | 7.3393e-05 |   0.0 |  2.60
Other   |            | 7.075e-05  |            |       |  2.62

Nlocal:    500 ave 515 max 486 min
Histogram: 2 0 1 0 2 0 0 1 0 2
Nghost:    1114.88 ave 1134 max 1095 min
Histogram: 1 0 0 1 2 2 0 1 0 1
Neighs:    5404.88 ave 5531 max 5295 min
Histogram: 3 1 0 0 0 0 0 1 1 2

Total # of neighbors = 43239
Ave neighs/atom = 10.8097
Neighbor list builds = 1
Dangerous builds = 0
Total wall time: 0:00:00
