LAMMPS (15 Sep 2022)
# 3d Lennard-Jones hybrid

units		lj
atom_style	atomic

lattice		fcc 0.8442
Lattice spacing in x,y,z = 1.6795962 1.6795962 1.6795962
region		box block 0 10 0 10 0 10
create_box	2 box
Created orthogonal box = (0 0 0) to (16.795962 16.795962 16.795962)
  2 by 2 by 2 MPI processor grid
create_atoms	1 box
Created 4000 atoms
  using lattice units in orthogonal box = (0 0 0) to (16.795962 16.795962 16.795962)
  create_atoms CPU = 0.132 seconds
mass		* 1.0
region          half block -0.1 4.9 0 10 0 10
set region half type 2
Setting atom values ...
  2000 settings made for type

velocity	all create 3.0 87287

pair_style	hybrid lj/cut 2.5 python 2.5
pair_coeff	* * python py_pot.LJCutMelt lj NULL
pair_coeff      * 2 lj/cut 1.0 1.0

neighbor	0.3 bin
neigh_modify	every 20 delay 0 check no

fix		1 all nve

thermo		50
run		250
Generated 0 of 1 mixed pair_coeff terms from geometric mixing rule
Neighbor list info ...
  update: every = 20 steps, delay = 0 steps, check = no
  max neighbors/atom: 2000, page size: 100000
  master list distance cutoff = 2.8
  ghost atom cutoff = 2.8
  binsize = 1.4, bins = 12 12 12
  3 neighbor lists, perpetual/occasional/extra = 3 0 0
  (1) pair lj/cut, perpetual, skip from (3)
      attributes: half, newton on
      pair build: skip
      stencil: none
      bin: none
  (2) pair python, perpetual, skip from (3)
      attributes: half, newton on
      pair build: skip
      stencil: none
      bin: none
  (3) neighbor class addition, perpetual
      attributes: half, newton on
      pair build: half/bin/atomonly/newton
      stencil: half/bin/3d
      bin: standard
Per MPI rank memory allocation (min/avg/max) = 3.908 | 3.908 | 3.908 Mbytes
   Step          Temp          E_pair         E_mol          TotEng         Press     
         0   3             -6.7733681      0             -2.2744931     -3.7033504    
        50   1.6651219     -4.7800507      0             -2.2829922      5.6676155    
       100   1.659692      -4.7700783      0             -2.2811627      5.749944     
       150   1.652159      -4.7594098      0             -2.2817909      5.8299095    
       200   1.6421383     -4.7441555      0             -2.2815638      5.8720606    
       250   1.6597903     -4.7697969      0             -2.2807338      5.7747105    
Loop time of 6.0647 on 8 procs for 250 steps with 4000 atoms

Performance: 17807.969 tau/day, 41.222 timesteps/s, 164.889 katom-step/s
93.6% CPU use with 8 MPI tasks x no OpenMP threads

MPI task timing breakdown:
Section |  min time  |  avg time  |  max time  |%varavg| %total
---------------------------------------------------------------
Pair    | 0.25218    | 2.0752     | 4.7133     | 127.5 | 34.22
Neigh   | 0.017972   | 0.019356   | 0.020405   |   0.6 |  0.32
Comm    | 1.3221     | 3.9615     | 5.7842     |  92.3 | 65.32
Output  | 0.00048034 | 0.001241   | 0.0022744  |   1.5 |  0.02
Modify  | 0.0033389  | 0.0040379  | 0.0053263  |   1.0 |  0.07
Other   |            | 0.003341   |            |       |  0.06

Nlocal:            500 ave         507 max         491 min
Histogram: 1 0 1 1 0 0 2 1 1 1
Nghost:        1812.75 ave        1827 max        1799 min
Histogram: 1 0 0 3 0 1 1 1 0 1
Neighs:              0 ave           0 max           0 min
Histogram: 8 0 0 0 0 0 0 0 0 0

Total # of neighbors = 0
Ave neighs/atom = 0
Neighbor list builds = 12
Dangerous builds not checked

write_data      hybrid.data
System init for write_data ...
Generated 0 of 1 mixed pair_coeff terms from geometric mixing rule
Neighbor list info ...
  update: every = 20 steps, delay = 0 steps, check = no
  max neighbors/atom: 2000, page size: 100000
  master list distance cutoff = 2.8
  ghost atom cutoff = 2.8
  binsize = 1.4, bins = 12 12 12
  3 neighbor lists, perpetual/occasional/extra = 3 0 0
  (1) pair lj/cut, perpetual, skip from (3)
      attributes: half, newton on
      pair build: skip
      stencil: none
      bin: none
  (2) pair python, perpetual, skip from (3)
      attributes: half, newton on
      pair build: skip
      stencil: none
      bin: none
  (3) neighbor class addition, perpetual
      attributes: half, newton on
      pair build: half/bin/atomonly/newton
      stencil: half/bin/3d
      bin: standard
write_restart   hybrid.restart
System init for write_restart ...
Generated 0 of 1 mixed pair_coeff terms from geometric mixing rule

clear

read_restart    hybrid.restart
Reading restart file ...
  restart file = 15 Sep 2022, LAMMPS = 15 Sep 2022
  restoring atom style atomic from restart
  orthogonal box = (0 0 0) to (16.795962 16.795962 16.795962)
  2 by 2 by 2 MPI processor grid
  pair style hybrid stores no restart info
  4000 atoms
  read_restart CPU = 0.004 seconds

pair_style	hybrid lj/cut 2.5 python 2.5
pair_coeff	* * python py_pot.LJCutMelt lj NULL
pair_coeff      * 2 lj/cut 1.0 1.0

fix		1 all nve

thermo		50
run		250
Generated 0 of 1 mixed pair_coeff terms from geometric mixing rule
Neighbor list info ...
  update: every = 1 steps, delay = 0 steps, check = yes
  max neighbors/atom: 2000, page size: 100000
  master list distance cutoff = 2.8
  ghost atom cutoff = 2.8
  binsize = 1.4, bins = 12 12 12
  3 neighbor lists, perpetual/occasional/extra = 3 0 0
  (1) pair lj/cut, perpetual, skip from (3)
      attributes: half, newton on
      pair build: skip
      stencil: none
      bin: none
  (2) pair python, perpetual, skip from (3)
      attributes: half, newton on
      pair build: skip
      stencil: none
      bin: none
  (3) neighbor class addition, perpetual
      attributes: half, newton on
      pair build: half/bin/atomonly/newton
      stencil: half/bin/3d
      bin: standard
Per MPI rank memory allocation (min/avg/max) = 4.391 | 4.391 | 4.392 Mbytes
   Step          Temp          E_pair         E_mol          TotEng         Press     
       250   1.6597903     -4.7697969      0             -2.2807338      5.7747105    
       300   1.6294773     -4.7244964      0             -2.2808914      5.9577803    
       350   1.6657311     -4.7790829      0             -2.2811109      5.7547453    
       400   1.6387992     -4.7387927      0             -2.2812085      5.9087554    
       450   1.6536622     -4.7603441      0             -2.2804709      5.8331749    
       500   1.6611109     -4.7732976      0             -2.2822542      5.7594161    
Loop time of 5.03687 on 8 procs for 250 steps with 4000 atoms

Performance: 21441.901 tau/day, 49.634 timesteps/s, 198.536 katom-step/s
94.4% CPU use with 8 MPI tasks x no OpenMP threads

MPI task timing breakdown:
Section |  min time  |  avg time  |  max time  |%varavg| %total
---------------------------------------------------------------
Pair    | 0.28627    | 2.0543     | 3.9395     | 122.0 | 40.79
Neigh   | 0.061627   | 0.068279   | 0.083855   |   2.5 |  1.36
Comm    | 0.80155    | 2.715      | 4.4964     | 106.3 | 53.90
Output  | 0.00060321 | 0.00083    | 0.001556   |   0.0 |  0.02
Modify  | 0.0034672  | 0.0040135  | 0.0048706  |   0.7 |  0.08
Other   |            | 0.1944     |            |       |  3.86

Nlocal:            500 ave         515 max         489 min
Histogram: 1 1 1 1 1 2 0 0 0 1
Nghost:        1815.75 ave        1834 max        1795 min
Histogram: 1 0 0 1 1 2 1 0 1 1
Neighs:              0 ave           0 max           0 min
Histogram: 8 0 0 0 0 0 0 0 0 0

Total # of neighbors = 0
Ave neighs/atom = 0
Neighbor list builds = 43
Dangerous builds = 0

clear

units		lj
atom_style	atomic

read_data       hybrid.data
Reading data file ...
  orthogonal box = (0 0 0) to (16.795962 16.795962 16.795962)
  2 by 2 by 2 MPI processor grid
  reading atoms ...
  4000 atoms
  reading velocities ...
  4000 velocities
  read_data CPU = 0.031 seconds

pair_style	hybrid lj/cut 2.5 python 2.5
pair_coeff	* * python py_pot.LJCutMelt lj NULL
pair_coeff      * 2 lj/cut 1.0 1.0

neighbor	0.3 bin
neigh_modify	every 20 delay 0 check no

fix		1 all nve

thermo		50
run		250
Generated 0 of 1 mixed pair_coeff terms from geometric mixing rule
Neighbor list info ...
  update: every = 20 steps, delay = 0 steps, check = no
  max neighbors/atom: 2000, page size: 100000
  master list distance cutoff = 2.8
  ghost atom cutoff = 2.8
  binsize = 1.4, bins = 12 12 12
  3 neighbor lists, perpetual/occasional/extra = 3 0 0
  (1) pair lj/cut, perpetual, skip from (3)
      attributes: half, newton on
      pair build: skip
      stencil: none
      bin: none
  (2) pair python, perpetual, skip from (3)
      attributes: half, newton on
      pair build: skip
      stencil: none
      bin: none
  (3) neighbor class addition, perpetual
      attributes: half, newton on
      pair build: half/bin/atomonly/newton
      stencil: half/bin/3d
      bin: standard
Per MPI rank memory allocation (min/avg/max) = 3.891 | 3.891 | 3.892 Mbytes
   Step          Temp          E_pair         E_mol          TotEng         Press     
         0   1.6597903     -4.7697969      0             -2.2807338      5.7747105    
        50   1.6293753     -4.72456        0             -2.2811081      5.9573467    
       100   1.6654545     -4.7792706      0             -2.2817134      5.7536054    
       150   1.6384743     -4.7391803      0             -2.2820833      5.9067285    
       200   1.6526459     -4.7600395      0             -2.2816904      5.8331512    
       250   1.6616554     -4.7754249      0             -2.2835649      5.7501707    
Loop time of 4.30059 on 8 procs for 250 steps with 4000 atoms

Performance: 25112.858 tau/day, 58.132 timesteps/s, 232.526 katom-step/s
97.0% CPU use with 8 MPI tasks x no OpenMP threads

MPI task timing breakdown:
Section |  min time  |  avg time  |  max time  |%varavg| %total
---------------------------------------------------------------
Pair    | 0.24568    | 1.9259     | 3.7495     | 118.8 | 44.78
Neigh   | 0.017413   | 0.020105   | 0.02679    |   2.3 |  0.47
Comm    | 0.52544    | 2.3473     | 4.0291     | 107.7 | 54.58
Output  | 0.0004248  | 0.00053909 | 0.0010674  |   0.0 |  0.01
Modify  | 0.0034725  | 0.0038412  | 0.0043745  |   0.5 |  0.09
Other   |            | 0.002843   |            |       |  0.07

Nlocal:            500 ave         516 max         493 min
Histogram: 5 0 0 0 0 1 1 0 0 1
Nghost:           1819 ave        1835 max        1798 min
Histogram: 1 0 1 1 0 2 0 0 1 2
Neighs:              0 ave           0 max           0 min
Histogram: 8 0 0 0 0 0 0 0 0 0

Total # of neighbors = 0
Ave neighs/atom = 0
Neighbor list builds = 12
Dangerous builds not checked

shell rm hybrid.data hybrid.restart
Total wall time: 0:00:15
