LAMMPS (4 Jan 2019)
# 3d Lennard-Jones hybrid

units		lj
atom_style	atomic

lattice		fcc 0.8442
Lattice spacing in x,y,z = 1.6796 1.6796 1.6796
region		box block 0 10 0 10 0 10
create_box	2 box
Created orthogonal box = (0 0 0) to (16.796 16.796 16.796)
  2 by 2 by 2 MPI processor grid
create_atoms	1 box
Created 4000 atoms
  Time spent = 0.00107959 secs
mass		* 1.0
region          half block -0.1 4.9 0 10 0 10
set region half type 2
  2000 settings made for type

velocity	all create 3.0 87287

pair_style	hybrid lj/cut 2.5 python 2.5
pair_coeff	* * python py_pot.LJCutMelt lj NULL
pair_coeff      * 2 lj/cut 1.0 1.0

neighbor	0.3 bin
neigh_modify	every 20 delay 0 check no

fix		1 all nve

thermo		50
run		250
Neighbor list info ...
  update every 20 steps, delay 0 steps, check no
  max neighbors/atom: 2000, page size: 100000
  master list distance cutoff = 2.8
  ghost atom cutoff = 2.8
  binsize = 1.4, bins = 12 12 12
  3 neighbor lists, perpetual/occasional/extra = 3 0 0
  (1) pair lj/cut, perpetual, skip from (3)
      attributes: half, newton on
      pair build: skip
      stencil: none
      bin: none
  (2) pair python, perpetual, skip from (3)
      attributes: half, newton on
      pair build: skip
      stencil: none
      bin: none
  (3) neighbor class addition, perpetual
      attributes: half, newton on
      pair build: half/bin/atomonly/newton
      stencil: half/bin/3d/newton
      bin: standard
Per MPI rank memory allocation (min/avg/max) = 3.908 | 3.908 | 3.908 Mbytes
Step Temp E_pair E_mol TotEng Press 
       0            3   -6.7733681            0   -2.2744931   -3.7033504 
      50    1.6651219   -4.7800507            0   -2.2829922    5.6676155 
     100     1.659692   -4.7700783            0   -2.2811627     5.749944 
     150     1.652159   -4.7594098            0   -2.2817909    5.8299095 
     200    1.6421383   -4.7441555            0   -2.2815638    5.8720606 
     250    1.6597903   -4.7697969            0   -2.2807338    5.7747105 
Loop time of 2.43365 on 8 procs for 250 steps with 4000 atoms

Performance: 44377.724 tau/day, 102.726 timesteps/s
99.8% CPU use with 8 MPI tasks x no OpenMP threads

MPI task timing breakdown:
Section |  min time  |  avg time  |  max time  |%varavg| %total
---------------------------------------------------------------
Pair    | 0.16054    | 1.2218     | 2.317      |  95.5 | 50.21
Neigh   | 0.012337   | 0.012863   | 0.013258   |   0.3 |  0.53
Comm    | 0.10115    | 1.1967     | 2.2584     |  96.5 | 49.17
Output  | 0.00013727 | 0.00015484 | 0.00018664 |   0.0 |  0.01
Modify  | 0.0017195  | 0.0017401  | 0.0017776  |   0.0 |  0.07
Other   |            | 0.0004     |            |       |  0.02

Nlocal:    500 ave 507 max 491 min
Histogram: 1 0 1 1 0 0 2 1 1 1
Nghost:    1812.75 ave 1827 max 1799 min
Histogram: 1 0 0 3 0 1 1 1 0 1
Neighs:    10778.2 ave 18946 max 3091 min
Histogram: 4 0 0 0 0 0 0 0 0 4

Total # of neighbors = 86226
Ave neighs/atom = 21.5565
Neighbor list builds = 12
Dangerous builds not checked

write_data      hybrid.data
Neighbor list info ...
  update every 20 steps, delay 0 steps, check no
  max neighbors/atom: 2000, page size: 100000
  master list distance cutoff = 2.8
  ghost atom cutoff = 2.8
  binsize = 1.4, bins = 12 12 12
  3 neighbor lists, perpetual/occasional/extra = 3 0 0
  (1) pair lj/cut, perpetual, skip from (3)
      attributes: half, newton on
      pair build: skip
      stencil: none
      bin: none
  (2) pair python, perpetual, skip from (3)
      attributes: half, newton on
      pair build: skip
      stencil: none
      bin: none
  (3) neighbor class addition, perpetual
      attributes: half, newton on
      pair build: half/bin/atomonly/newton
      stencil: half/bin/3d/newton
      bin: standard
write_restart   hybrid.restart
Neighbor list info ...
  update every 20 steps, delay 0 steps, check no
  max neighbors/atom: 2000, page size: 100000
  master list distance cutoff = 2.8
  ghost atom cutoff = 2.8
  binsize = 1.4, bins = 12 12 12
  3 neighbor lists, perpetual/occasional/extra = 3 0 0
  (1) pair lj/cut, perpetual, skip from (3)
      attributes: half, newton on
      pair build: skip
      stencil: none
      bin: none
  (2) pair python, perpetual, skip from (3)
      attributes: half, newton on
      pair build: skip
      stencil: none
      bin: none
  (3) neighbor class addition, perpetual
      attributes: half, newton on
      pair build: half/bin/atomonly/newton
      stencil: half/bin/3d/newton
      bin: standard

clear

read_restart    hybrid.restart
  restoring atom style atomic from restart
  orthogonal box = (0 0 0) to (16.796 16.796 16.796)
  2 by 2 by 2 MPI processor grid
  restoring pair style hybrid from restart
  4000 atoms

pair_style	hybrid lj/cut 2.5 python 2.5
pair_coeff	* * python py_pot.LJCutMelt lj NULL
pair_coeff      * 2 lj/cut 1.0 1.0

fix		1 all nve

thermo		50
run		250
Neighbor list info ...
  update every 1 steps, delay 10 steps, check yes
  max neighbors/atom: 2000, page size: 100000
  master list distance cutoff = 2.8
  ghost atom cutoff = 2.8
  binsize = 1.4, bins = 12 12 12
  3 neighbor lists, perpetual/occasional/extra = 3 0 0
  (1) pair lj/cut, perpetual, skip from (3)
      attributes: half, newton on
      pair build: skip
      stencil: none
      bin: none
  (2) pair python, perpetual, skip from (3)
      attributes: half, newton on
      pair build: skip
      stencil: none
      bin: none
  (3) neighbor class addition, perpetual
      attributes: half, newton on
      pair build: half/bin/atomonly/newton
      stencil: half/bin/3d/newton
      bin: standard
Per MPI rank memory allocation (min/avg/max) = 3.545 | 3.545 | 3.546 Mbytes
Step Temp E_pair E_mol TotEng Press 
     250    1.6597903   -4.7697969            0   -2.2807338    5.7747105 
     300    1.6294773   -4.7244964            0   -2.2808914    5.9577803 
     350     1.665731    -4.779083            0   -2.2811112    5.7547447 
     400    1.6387992   -4.7387931            0   -2.2812088    5.9087535 
     450    1.6536604   -4.7603415            0    -2.280471    5.8331849 
     500    1.6611114   -4.7732987            0   -2.2822546    5.7594039 
Loop time of 2.3649 on 8 procs for 250 steps with 4000 atoms

Performance: 45667.938 tau/day, 105.713 timesteps/s
99.8% CPU use with 8 MPI tasks x no OpenMP threads

MPI task timing breakdown:
Section |  min time  |  avg time  |  max time  |%varavg| %total
---------------------------------------------------------------
Pair    | 0.15681    | 1.176      | 2.2948     |  92.6 | 49.73
Neigh   | 0.023784   | 0.025885   | 0.028067   |   0.8 |  1.09
Comm    | 0.041492   | 1.1604     | 2.1798     |  93.3 | 49.07
Output  | 0.00013585 | 0.00015167 | 0.00017411 |   0.0 |  0.01
Modify  | 0.0016581  | 0.001766   | 0.0019216  |   0.2 |  0.07
Other   |            | 0.0006558  |            |       |  0.03

Nlocal:    500 ave 515 max 489 min
Histogram: 1 1 1 1 1 2 0 0 0 1
Nghost:    1815.75 ave 1834 max 1795 min
Histogram: 1 0 0 1 1 2 1 0 1 1
Neighs:    10879.1 ave 19212 max 3229 min
Histogram: 4 0 0 0 0 0 0 0 0 4

Total # of neighbors = 87033
Ave neighs/atom = 21.7583
Neighbor list builds = 25
Dangerous builds = 25

clear

units		lj
atom_style	atomic

read_data       hybrid.data
  orthogonal box = (0 0 0) to (16.796 16.796 16.796)
  2 by 2 by 2 MPI processor grid
  reading atoms ...
  4000 atoms
  reading velocities ...
  4000 velocities

pair_style	hybrid lj/cut 2.5 python 2.5
pair_coeff	* * python py_pot.LJCutMelt lj NULL
pair_coeff      * 2 lj/cut 1.0 1.0

neighbor	0.3 bin
neigh_modify	every 20 delay 0 check no

fix		1 all nve

thermo		50
run		250
Neighbor list info ...
  update every 20 steps, delay 0 steps, check no
  max neighbors/atom: 2000, page size: 100000
  master list distance cutoff = 2.8
  ghost atom cutoff = 2.8
  binsize = 1.4, bins = 12 12 12
  3 neighbor lists, perpetual/occasional/extra = 3 0 0
  (1) pair lj/cut, perpetual, skip from (3)
      attributes: half, newton on
      pair build: skip
      stencil: none
      bin: none
  (2) pair python, perpetual, skip from (3)
      attributes: half, newton on
      pair build: skip
      stencil: none
      bin: none
  (3) neighbor class addition, perpetual
      attributes: half, newton on
      pair build: half/bin/atomonly/newton
      stencil: half/bin/3d/newton
      bin: standard
Per MPI rank memory allocation (min/avg/max) = 3.045 | 3.045 | 3.046 Mbytes
Step Temp E_pair E_mol TotEng Press 
       0    1.6597903   -4.7697969            0   -2.2807338    5.7747105 
      50    1.6293753     -4.72456            0   -2.2811081    5.9573467 
     100    1.6654545   -4.7792706            0   -2.2817134    5.7536054 
     150    1.6384743   -4.7391803            0   -2.2820833    5.9067285 
     200    1.6526459   -4.7600395            0   -2.2816904    5.8331512 
     250    1.6616554   -4.7754249            0   -2.2835649    5.7501707 
Loop time of 2.23362 on 8 procs for 250 steps with 4000 atoms

Performance: 48352.018 tau/day, 111.926 timesteps/s
99.7% CPU use with 8 MPI tasks x no OpenMP threads

MPI task timing breakdown:
Section |  min time  |  avg time  |  max time  |%varavg| %total
---------------------------------------------------------------
Pair    | 0.15846    | 1.1331     | 2.1855     |  90.5 | 50.73
Neigh   | 0.011305   | 0.012455   | 0.013471   |   0.6 |  0.56
Comm    | 0.033401   | 1.0856     | 2.0596     |  92.5 | 48.60
Output  | 0.00031181 | 0.0003534  | 0.0004448  |   0.0 |  0.02
Modify  | 0.0015899  | 0.0017363  | 0.0018446  |   0.2 |  0.08
Other   |            | 0.0003876  |            |       |  0.02

Nlocal:    500 ave 516 max 493 min
Histogram: 5 0 0 0 0 1 1 0 0 1
Nghost:    1819 ave 1835 max 1798 min
Histogram: 1 0 1 1 0 2 0 0 1 2
Neighs:    10881.4 ave 19279 max 3195 min
Histogram: 4 0 0 0 0 0 0 0 0 4

Total # of neighbors = 87051
Ave neighs/atom = 21.7628
Neighbor list builds = 12
Dangerous builds not checked

shell rm hybrid.data hybrid.restart
Total wall time: 0:00:07
