LAMMPS (4 Jan 2019)
# Input File for DPD fluid under isoenthalpic conditions using the VV-SSA integration scheme
##log             #log.dpdh-shardlow
boundary        p p p

units           metal  # ev, ps
atom_style      dpd
read_data       data.dpdh
  orthogonal box = (-64.5 -64.5 -64.5) to (64.5 64.5 64.5)
  2 by 2 by 2 MPI processor grid
  reading atoms ...
  10125 atoms
  reading velocities ...
  10125 velocities

comm_modify     mode single vel yes
mass            1 100.0

pair_style      dpd/fdt/energy 10.0 234324
pair_coeff      1 1 0.075 0.022 3.2E-5 10.0

neighbor        2.0 bin
neigh_modify    every 1 delay 0 check no once no

timestep        0.001

compute         dpdU all dpd
variable        totEnergy equal pe+ke+c_dpdU[1]+c_dpdU[2]+press*vol

thermo          1
thermo_style    custom step temp press vol pe ke v_totEnergy cella cellb cellc
thermo_modify   format float %15.10f

fix             1 all shardlow
fix             0 all nph iso 0.0 0.0 1000.0
fix             2 all eos/cv 0.0005

run             100
Neighbor list info ...
  update every 1 steps, delay 0 steps, check no
  max neighbors/atom: 2000, page size: 100000
  master list distance cutoff = 12
  ghost atom cutoff = 12
  binsize = 6, bins = 22 22 22
  2 neighbor lists, perpetual/occasional/extra = 2 0 0
  (1) pair dpd/fdt/energy, perpetual
      attributes: half, newton on
      pair build: half/bin/atomonly/newton
      stencil: half/bin/3d/newton
      bin: standard
  (2) fix shardlow, perpetual
      attributes: half, newton on, ghost, ssa
      pair build: half/bin/newton/ssa
      stencil: half/bin/3d/newton/ssa
      bin: ssa
Per MPI rank memory allocation (min/avg/max) = 3.972 | 3.973 | 3.975 Mbytes
Step Temp Press Volume PotEng KinEng v_totEnergy Cella Cellb Cellc 
       0  239.4274282976 2817.4421750949 2146689.0000000000 2639.8225470740  313.3218455755 6048176597.3066110611  129.0000000000  129.0000000000  129.0000000000 
       1  239.6391542419 2817.5853902437 2146689.0000581862 2639.8301132608  313.5989164361 6048484035.8552551270  129.0000000012  129.0000000012  129.0000000012 
       2  239.7899025641 2817.6891044396 2146689.0002327445 2639.8374768385  313.7961901691 6048706678.4705600739  129.0000000047  129.0000000047  129.0000000047 
       3  239.7385954059 2817.6608416405 2146689.0005236780 2639.8443765646  313.7290480975 6048646007.8503379822  129.0000000105  129.0000000105  129.0000000105 
       4  239.8406389758 2817.7319763231 2146689.0009309864 2639.8507003599  313.8625853447 6048798713.0387382507  129.0000000186  129.0000000186  129.0000000186 
       5  239.9789800493 2817.8271317609 2146689.0014546732 2639.8564787449  314.0436225833 6049002983.6460380554  129.0000000291  129.0000000291  129.0000000291 
       6  240.1698518850 2817.9565693127 2146689.0020947400 2639.8617231745  314.2934031379 6049280847.6185379028  129.0000000420  129.0000000420  129.0000000420 
       7  240.0934170413 2817.9119246976 2146689.0028511942 2639.8665144567  314.1933782306 6049185011.6459560394  129.0000000571  129.0000000571  129.0000000571 
       8  240.1798738157 2817.9729447619 2146689.0037240339 2639.8709211460  314.3065181341 6049316005.2065343857  129.0000000746  129.0000000746  129.0000000746 
       9  240.2819259328 2818.0434867554 2146689.0047132610 2639.8746419498  314.4400665663 6049467439.7161073685  129.0000000944  129.0000000944  129.0000000944 
      10  240.3651346356 2818.1019318826 2146689.0058188797 2639.8779563810  314.5489559468 6049592906.3437910080  129.0000001166  129.0000001166  129.0000001166 
      11  240.4380244986 2818.1538246822 2146689.0070408904 2639.8807081558  314.6443417868 6049704307.4899902344  129.0000001410  129.0000001410  129.0000001410 
      12  240.5040934173 2818.2012666030 2146689.0083792959 2639.8831988402  314.7308015366 6049806154.3116760254  129.0000001678  129.0000001678  129.0000001678 
      13  240.6411747519 2818.2951116299 2146689.0098341000 2639.8855004184  314.9101902436 6050007614.4994554520  129.0000001970  129.0000001970  129.0000001970 
      14  240.4447603019 2818.1718264047 2146689.0114053013 2639.8870152032  314.6531564592 6049742963.8893232346  129.0000002285  129.0000002285  129.0000002285 
      15  240.5504324647 2818.2460257503 2146689.0130929006 2639.8877463941  314.7914421907 6049902251.5651922226  129.0000002623  129.0000002623  129.0000002623 
      16  240.7523615270 2818.3828615129 2146689.0148969004 2639.8879945350  315.0556925605 6050196000.4778842926  129.0000002984  129.0000002984  129.0000002984 
      17  240.7038176183 2818.3567205645 2146689.0168173006 2639.8878272647  314.9921665595 6050139889.4034824371  129.0000003369  129.0000003369  129.0000003369 
      18  240.7687709409 2818.4041682101 2146689.0188541049 2639.8871434768  315.0771664071 6050241750.4836397171  129.0000003777  129.0000003777  129.0000003777 
      19  240.8669343639 2818.4731057664 2146689.0210073148 2639.8856135469  315.2056259787 6050389744.0475072861  129.0000004208  129.0000004208  129.0000004208 
      20  240.9572777921 2818.5371454938 2146689.0232769344 2639.8838114041  315.3238520727 6050527223.8242206573  129.0000004663  129.0000004663  129.0000004663 
      21  240.9120482190 2818.5131309108 2146689.0256629633 2639.8816905892  315.2646633097 6050475678.7075138092  129.0000005141  129.0000005141  129.0000005141 
      22  241.0035751154 2818.5779324485 2146689.0281654038 2639.8790631653  315.3844381254 6050614794.5106344223  129.0000005642  129.0000005642  129.0000005642 
      23  240.8925115694 2818.5104336200 2146689.0307842535 2639.8759521672  315.2390970697 6050469902.8973045349  129.0000006166  129.0000006166  129.0000006166 
      24  240.9798733158 2818.5717489478 2146689.0335195120 2639.8726191414  315.3534212463 6050601535.5484542847  129.0000006714  129.0000006714  129.0000006714 
      25  241.1873400526 2818.7108974250 2146689.0363711854 2639.8689954068  315.6249183815 6050900252.0965166092  129.0000007285  129.0000007285  129.0000007285 
      26  241.3016437207 2818.7888484587 2146689.0393392770 2639.8655094701  315.7744995573 6051067597.0923690796  129.0000007880  129.0000007880  129.0000007880 
      27  241.3456854608 2818.8209527929 2146689.0424237889 2639.8617201876  315.8321338868 6051136523.8094434738  129.0000008498  129.0000008498  129.0000008498 
      28  241.4259385861 2818.8766575112 2146689.0456247241 2639.8575069995  315.9371555107 6051256113.5409116745  129.0000009139  129.0000009139  129.0000009139 
      29  241.6496397085 2819.0252215313 2146689.0489420854 2639.8530357288  316.2298974452 6051575043.6469812393  129.0000009804  129.0000009804  129.0000009804 
      30  241.7301701610 2819.0798713888 2146689.0523758787 2639.8478794020  316.3352819878 6051692369.5778331757  129.0000010491  129.0000010491  129.0000010491 
      31  241.8267490339 2819.1440425051 2146689.0559261069 2639.8421366112  316.4616679699 6051830135.0193233490  129.0000011202  129.0000011202  129.0000011202 
      32  241.8427093378 2819.1547414973 2146689.0595927690 2639.8358665505  316.4825540978 6051853112.7656555176  129.0000011937  129.0000011937  129.0000011937 
      33  241.9468665880 2819.2223395386 2146689.0633758665 2639.8294429507  316.6188573698 6051998235.4067382812  129.0000012695  129.0000012695  129.0000012695 
      34  242.0010857463 2819.2569844140 2146689.0672754040 2639.8222789126  316.6898101711 6052072618.1756782532  129.0000013476  129.0000013476  129.0000013476 
      35  242.1151814158 2819.3307859085 2146689.0712913824 2639.8149023125  316.8391191537 6052231058.3594121933  129.0000014280  129.0000014280  129.0000014280 
      36  242.2547725377 2819.4211527955 2146689.0754238036 2639.8069985050  317.0217922428 6052425059.6190891266  129.0000015108  129.0000015108  129.0000015108 
      37  242.4585635756 2819.5527694660 2146689.0796726765 2639.7986045238  317.2884792492 6052707611.6677379608  129.0000015959  129.0000015959  129.0000015959 
      38  242.4748518200 2819.5618093492 2146689.0840380015 2639.7897179391  317.3097945297 6052727029.7945632935  129.0000016834  129.0000016834  129.0000016834 
      39  242.3544514013 2819.4811552915 2146689.0885197776 2639.7802710261  317.1522349649 6052553903.2456283569  129.0000017731  129.0000017731  129.0000017731 
      40  242.3960841885 2819.5056590642 2146689.0931180026 2639.7701658484  317.2067168671 6052606518.1918525696  129.0000018652  129.0000018652  129.0000018652 
      41  242.4899249652 2819.5638414711 2146689.0978326802 2639.7600410971  317.3295196953 6052731431.0234718323  129.0000019597  129.0000019597  129.0000019597 
      42  242.4536055128 2819.5366525420 2146689.1026638090 2639.7492506240  317.2819909809 6052673078.4673681259  129.0000020564  129.0000020564  129.0000020564 
      43  242.5151843403 2819.5726314918 2146689.1076113866 2639.7377326246  317.3625748640 6052750328.0368232727  129.0000021555  129.0000021555  129.0000021555 
      44  242.7302769438 2819.7082310123 2146689.1126754219 2639.7254327374  317.6440514348 6053041432.3296632767  129.0000022570  129.0000022570  129.0000022570 
      45  242.7405693745 2819.7104472192 2146689.1178559139 2639.7126008299  317.6575204155 6053046204.4443550110  129.0000023608  129.0000023608  129.0000023608 
      46  242.8147407898 2819.7537266092 2146689.1231528665 2639.6992030212  317.7545833330 6053139126.7758989334  129.0000024669  129.0000024669  129.0000024669 
      47  242.8329173704 2819.7605743890 2146689.1285662795 2639.6852366929  317.7783697464 6053153842.0947914124  129.0000025753  129.0000025753  129.0000025753 
      48  242.9887692543 2819.8567971249 2146689.1340961559 2639.6704956888  317.9823221517 6053360417.9893980026  129.0000026861  129.0000026861  129.0000026861 
      49  242.9728133998 2819.8407702614 2146689.1397424946 2639.6552859319  317.9614418464 6053326029.2173900604  129.0000027992  129.0000027992  129.0000027992 
      50  243.0470557263 2819.8829499927 2146689.1455052998 2639.6395112256  318.0585975605 6053416592.2388410568  129.0000029146  129.0000029146  129.0000029146 
      51  243.0164309699 2819.8569231441 2146689.1513845678 2639.6233605762  318.0185210945 6053360737.2641992569  129.0000030324  129.0000030324  129.0000030324 
      52  243.1245066546 2819.9209612910 2146689.1573803015 2639.6069569584  318.1599521462 6053498224.1669759750  129.0000031525  129.0000031525  129.0000031525 
      53  243.1909911743 2819.9577749931 2146689.1634925050 2639.5904606420  318.2469557638 6053577268.9782495499  129.0000032749  129.0000032749  129.0000032749 
      54  243.3416123733 2820.0488660960 2146689.1697211787 2639.5735494941  318.4440631394 6053772830.8269405365  129.0000033997  129.0000033997  129.0000033997 
      55  243.4779699176 2820.1302541012 2146689.1760663278 2639.5561352156  318.6225046728 6053947563.4702739716  129.0000035268  129.0000035268  129.0000035268 
      56  243.5065077716 2820.1415070129 2146689.1825279510 2639.5384737446  318.6598501564 6053971738.1968231201  129.0000036562  129.0000036562  129.0000036562 
      57  243.6449375924 2820.2238956074 2146689.1891060518 2639.5203050473  318.8410035323 6054148619.4530467987  129.0000037880  129.0000037880  129.0000037880 
      58  243.6285743278 2820.2060456113 2146689.1958006350 2639.5019223833  318.8195900781 6054110319.9393873215  129.0000039221  129.0000039221  129.0000039221 
      59  243.5822214439 2820.1680538088 2146689.2026116960 2639.4833389857  318.7589313172 6054028782.5557308197  129.0000040585  129.0000040585  129.0000040585 
      60  243.5920017529 2820.1664030267 2146689.2095392337 2639.4647443431  318.7717301202 6054025258.3765583038  129.0000041972  129.0000041972  129.0000041972 
      61  243.5175176389 2820.1097484346 2146689.2165832464 2639.4455849165  318.6742579958 6053903658.4398651123  129.0000043383  129.0000043383  129.0000043383 
      62  243.6191514826 2820.1672312762 2146689.2237437330 2639.4259785267  318.8072590630 6054027076.4299154282  129.0000044818  129.0000044818  129.0000044818 
      63  243.5805864227 2820.1336255144 2146689.2310206974 2639.4058332321  318.7567916799 6053954955.8250131607  129.0000046275  129.0000046275  129.0000046275 
      64  243.4513673777 2820.0404340457 2146689.2384141390 2639.3853216280  318.5876917988 6053754923.5526399612  129.0000047756  129.0000047756  129.0000047756 
      65  243.5087919372 2820.0687826614 2146689.2459240519 2639.3641386306  318.6628392833 6053815800.3992567062  129.0000049261  129.0000049261  129.0000049261 
      66  243.6042706743 2820.1221752972 2146689.2535504391 2639.3424007360  318.7877855952 6053930439.3036432266  129.0000050788  129.0000050788  129.0000050788 
      67  243.7229947039 2820.1907875561 2146689.2612933014 2639.3201544279  318.9431513874 6054077750.3388090134  129.0000052339  129.0000052339  129.0000052339 
      68  243.7723385835 2820.2141170501 2146689.2691526436 2639.2977688488  319.0077242541 6054127853.6782312393  129.0000053914  129.0000053914  129.0000053914 
      69  243.7060623483 2820.1620291799 2146689.2771284627 2639.2749513894  318.9209932038 6054016059.6991930008  129.0000055511  129.0000055511  129.0000055511 
      70  243.7020546321 2820.1499932083 2146689.2852207595 2639.2516489654  318.9157485873 6053990245.0294799805  129.0000057132  129.0000057132  129.0000057132 
      71  243.8292891967 2820.2228000916 2146689.2934295330 2639.2281612756  319.0822515185 6054146561.9363431931  129.0000058776  129.0000058776  129.0000058776 
      72  244.1108059957 2820.3957505097 2146689.3017547899 2639.2044490850  319.4506527649 6054517856.2277965546  129.0000060444  129.0000060444  129.0000060444 
      73  244.0486349067 2820.3449298000 2146689.3101965329 2639.1805881289  319.3692938308 6054408783.7624959946  129.0000062135  129.0000062135  129.0000062135 
      74  244.1015838917 2820.3688013066 2146689.3187547615 2639.1561354880  319.4385844456 6054460052.6078157425  129.0000063849  129.0000063849  129.0000063849 
      75  244.1079161783 2820.3622482623 2146689.3274294757 2639.1313078431  319.4468710640 6054446009.7235641479  129.0000065587  129.0000065587  129.0000065587 
      76  244.3423929467 2820.5045179082 2146689.3362206789 2639.1063743752  319.7537143290 6054751443.2494964600  129.0000067348  129.0000067348  129.0000067348 
      77  244.4380884084 2820.5555673792 2146689.3451283728 2639.0809900339  319.8789442531 6054861055.7291946411  129.0000069132  129.0000069132  129.0000069132 
      78  244.6360655334 2820.6728397700 2146689.3541525616 2639.0553788757  320.1380230004 6055112828.5753002167  129.0000070940  129.0000070940  129.0000070940 
      79  244.6587772887 2820.6753319746 2146689.3632932534 2639.0295017626  320.1677442780 6055118204.3472061157  129.0000072771  129.0000072771  129.0000072771 
      80  244.7565253654 2820.7268144396 2146689.3725504419 2639.0027161579  320.2956603151 6055228747.3193931580  129.0000074625  129.0000074625  129.0000074625 
      81  244.7083455966 2820.6826414901 2146689.3819241310 2638.9757221075  320.2326108383 6055133948.1583242416  129.0000076503  129.0000076503  129.0000076503 
      82  244.6461954181 2820.6286759915 2146689.3914143164 2638.9483501664  320.1512792683 6055018127.7637300491  129.0000078404  129.0000078404  129.0000078404 
      83  244.6032880475 2820.5865901542 2146689.4010210000 2638.9207063542  320.0951294085 6054927809.6397228241  129.0000080328  129.0000080328  129.0000080328 
      84  244.5915385902 2820.5646196665 2146689.4107441744 2638.8924681330  320.0797537197 6054880673.2513484955  129.0000082276  129.0000082276  129.0000082276 
      85  244.6061678790 2820.5595851869 2146689.4205838433 2638.8636860410  320.0988980416 6054869893.5406532288  129.0000084247  129.0000084247  129.0000084247 
      86  244.5505277950 2820.5084931597 2146689.4305400033 2638.8347054065  320.0260857747 6054760242.9078369141  129.0000086241  129.0000086241  129.0000086241 
      87  244.5910353770 2820.5197208901 2146689.4406126556 2638.8049728409  320.0790951999 6054784373.7680826187  129.0000088258  129.0000088258  129.0000088258 
      88  244.5942753758 2820.5066821273 2146689.4508018014 2638.7745654884  320.0833351586 6054756412.3322467804  129.0000090299  129.0000090299  129.0000090299 
      89  244.6998382294 2820.5604223513 2146689.4611074394 2638.7439856782  320.2214778449 6054871804.9718112946  129.0000092364  129.0000092364  129.0000092364 
      90  244.9251069527 2820.6920148934 2146689.4715295713 2638.7130840482  320.5162711885 6055154322.6927013397  129.0000094451  129.0000094451  129.0000094451 
      91  244.9333577004 2820.6822472064 2146689.4820682029 2638.6816053922  320.5270683620 6055133384.2280292511  129.0000096562  129.0000096562  129.0000096562 
      92  245.1492781356 2820.8078593946 2146689.4927233383 2638.6496408976  320.8096282581 6055403064.6472873688  129.0000098697  129.0000098697  129.0000098697 
      93  245.3447740740 2820.9197494130 2146689.5034949784 2638.6170193148  321.0654600508 6055643288.1601352692  129.0000100854  129.0000100854  129.0000100854 
      94  245.4077646058 2820.9452427376 2146689.5143831274 2638.5840913192  321.1478913322 6055698045.1272401810  129.0000103035  129.0000103035  129.0000103035 
      95  245.5269305683 2821.0070365918 2146689.5253877854 2638.5506430516  321.3038354508 6055830728.3903970718  129.0000105240  129.0000105240  129.0000105240 
      96  245.7048457854 2821.1067702214 2146689.5365089597 2638.5172789074  321.5366605894 6056044856.9023704529  129.0000107467  129.0000107467  129.0000107467 
      97  245.6092519628 2821.0279804676 2146689.5477466490 2638.4832543186  321.4115636733 6055875751.4639606476  129.0000109718  129.0000109718  129.0000109718 
      98  245.5782822555 2820.9907279362 2146689.5591008486 2638.4487572589  321.3710357942 6055795813.8743963242  129.0000111993  129.0000111993  129.0000111993 
      99  245.6650927343 2821.0300637848 2146689.5705715632 2638.4138132019  321.4846385657 6055880288.0890884399  129.0000114290  129.0000114290  129.0000114290 
     100  245.6500730162 2821.0030340714 2146689.5821587890 2638.3782048337  321.4649833164 6055822296.3728752136  129.0000116611  129.0000116611  129.0000116611 
Loop time of 0.89324 on 8 procs for 100 steps with 10125 atoms

Performance: 9.673 ns/day, 2.481 hours/ns, 111.952 timesteps/s
98.8% CPU use with 8 MPI tasks x no OpenMP threads

MPI task timing breakdown:
Section |  min time  |  avg time  |  max time  |%varavg| %total
---------------------------------------------------------------
Pair    | 0.044047   | 0.046634   | 0.049982   |   0.9 |  5.22
Neigh   | 0.37625    | 0.38737    | 0.39801    |   1.1 | 43.37
Comm    | 0.039444   | 0.053372   | 0.066962   |   3.7 |  5.98
Output  | 0.0052978  | 0.0053955  | 0.0059512  |   0.3 |  0.60
Modify  | 0.39841    | 0.39878    | 0.39903    |   0.0 | 44.64
Other   |            | 0.001688   |            |       |  0.19

Nlocal:    1265.62 ave 1287 max 1248 min
Histogram: 1 1 1 1 0 2 0 1 0 1
Nghost:    1999.88 ave 2025 max 1966 min
Histogram: 1 0 1 0 2 0 0 1 1 2
Neighs:    20860.6 ave 21420 max 20472 min
Histogram: 1 1 3 0 0 0 1 0 1 1

Total # of neighbors = 166885
Ave neighs/atom = 16.4825
Neighbor list builds = 100
Dangerous builds not checked

Please see the log.cite file for references relevant to this simulation

Total wall time: 0:00:00
