LAMMPS (4 Jan 2019)
# 2d indenter simulation

dimension	2
boundary	p s p

atom_style	atomic
neighbor	0.3 bin
neigh_modify	delay 5

# create geometry

lattice		hex 0.9
Lattice spacing in x,y,z = 1.1327 1.96189 1.1327
region		box block 0 20 0 10 -0.25 0.25
create_box	2 box
Created orthogonal box = (0 0 -0.283174) to (22.6539 19.6189 0.283174)
  4 by 2 by 1 MPI processor grid
create_atoms	1 box
Created 420 atoms
  Time spent = 0.000914687 secs

mass		1 1.0
mass		2 1.0

# LJ potentials

pair_style	lj/cut 2.5
pair_coeff	* * 1.0 1.0 2.5

# define groups

region	        1 block INF INF INF 1.25 INF INF
group		lower region 1
60 atoms in group lower
group		mobile subtract all lower
360 atoms in group mobile
set		group lower type 2
  60 settings made for type

# initial velocities

compute	  	new mobile temp
velocity	mobile create 0.2 482748 temp new
fix		1 all nve
fix		2 lower setforce 0.0 0.0 0.0
fix		3 all temp/rescale 100 0.1 0.1 0.01 1.0

# run with indenter

timestep	0.003
variable	k equal 1000.0/xlat
variable        y equal "13.0*ylat - step*dt*0.02*ylat"

fix		4 all indent $k sphere 10 v_y 0 5.0
fix		4 all indent 882.849286914813 sphere 10 v_y 0 5.0
fix		5 all enforce2d

thermo		1000
thermo_modify	temp new
WARNING: Temperature for thermo pressure is not for group all (../thermo.cpp:488)

#dump		1 all atom 250 dump.indent

#dump		2 all image 1000 image.*.jpg type type #		zoom 1.6 adiam 1.5
#dump_modify	2 pad 5

#dump		3 all movie 1000 movie.mpg type type #		zoom 1.6 adiam 1.5
#dump_modify	3 pad 5

run		30000
Neighbor list info ...
  update every 1 steps, delay 5 steps, check yes
  max neighbors/atom: 2000, page size: 100000
  master list distance cutoff = 2.8
  ghost atom cutoff = 2.8
  binsize = 1.4, bins = 17 15 1
  1 neighbor lists, perpetual/occasional/extra = 1 0 0
  (1) pair lj/cut, perpetual
      attributes: half, newton on
      pair build: half/bin/atomonly/newton
      stencil: half/bin/2d/newton
      bin: standard
Per MPI rank memory allocation (min/avg/max) = 3.047 | 3.047 | 3.047 Mbytes
Step Temp E_pair E_mol TotEng Press Volume 
       0          0.2   -3.1727576            0   -3.0018052    -1.436185    444.53333 
    1000   0.12131696   -3.0937447            0   -2.9900476  0.039362931    439.89087 
    2000   0.11795119    -3.090866            0   -2.9900458  -0.37860976    444.04045 
    3000   0.11433193   -3.0875279            0   -2.9898013  -0.41134917    444.61148 
    4000   0.12108804   -3.0933579            0   -2.9898565  0.088410931    438.99805 
    5000   0.11374788   -3.0869916            0   -2.9897642  -0.56824232    445.26635 
    6000    0.1211043   -3.0904627            0   -2.9869474  0.035084266    441.99055 
    7000   0.12224323   -3.0895729            0    -2.985084  -0.24105703    445.97737 
    8000   0.12477897   -3.0870196            0   -2.9803633   0.15638951    440.66927 
    9000   0.11671309   -3.0868902            0   -2.9871283   0.24134369    439.45519 
   10000   0.11635587   -3.0789589            0   -2.9795024   0.40685612    441.98385 
   11000    0.1180152   -3.0751221            0   -2.9742472   0.64476786    440.14713 
   12000   0.12481516   -3.0683196            0   -2.9616323    0.5853324    441.28647 
   13000   0.12184097   -3.0563893            0   -2.9522443    1.0105854    437.43531 
   14000   0.12442898   -3.0589083            0   -2.9525512   0.74244448    443.86639 
   15000   0.11873516   -3.0600927            0   -2.9586024    1.3918511    436.71973 
   16000   0.11307494    -3.044647            0   -2.9479948    1.1245767    442.86211 
   17000    0.1251731   -3.0441455            0   -2.9371523     1.776766    439.29248 
   18000   0.11622153   -3.0296049            0   -2.9302631    1.3247204    465.82998 
   19000   0.12040116   -3.0205435            0   -2.9176291    1.9006402    456.44575 
   20000   0.11348548   -3.0041256            0   -2.9071226    1.8764556    459.84356 
   21000   0.11963365   -2.9930122            0   -2.8907539     2.430365    454.07148 
   22000   0.10991937   -2.9667355            0   -2.8727806    2.4875545    454.86461 
   23000   0.11311583   -2.9431377            0   -2.8464506    3.1495259    453.02125 
   24000   0.11671309   -2.9604677            0   -2.8607058     2.372839    453.93404 
   25000   0.11904877   -2.9350932            0   -2.8333349    2.3074783    455.87897 
   26000   0.11777231   -3.0029146            0   -2.9022473    1.0090434    482.17338 
   27000   0.12606177   -3.0173033            0   -2.9095505   0.80414996    486.65576 
   28000   0.12181343   -3.0374628            0   -2.9333413   0.70302652    488.56053 
   29000   0.12742771   -3.0450729            0   -2.9361526   0.88213943    483.99522 
   30000   0.12234609   -3.0495496            0   -2.9449728   0.89399886    487.65665 
Loop time of 0.860327 on 8 procs for 30000 steps with 420 atoms

Performance: 9038419.151 tau/day, 34870.444 timesteps/s
99.9% CPU use with 8 MPI tasks x no OpenMP threads

MPI task timing breakdown:
Section |  min time  |  avg time  |  max time  |%varavg| %total
---------------------------------------------------------------
Pair    | 0.17577    | 0.19834    | 0.21543    |   3.3 | 23.05
Neigh   | 0.0096759  | 0.010502   | 0.011102   |   0.4 |  1.22
Comm    | 0.31985    | 0.3433     | 0.37345    |   3.9 | 39.90
Output  | 0.00060873 | 0.00062617 | 0.00070167 |   0.0 |  0.07
Modify  | 0.18369    | 0.18931    | 0.19609    |   1.3 | 22.00
Other   |            | 0.1182     |            |       | 13.74

Nlocal:    52.5 ave 62 max 37 min
Histogram: 1 1 0 0 0 1 1 1 0 3
Nghost:    79.125 ave 86 max 68 min
Histogram: 1 0 1 0 0 2 0 1 0 3
Neighs:    448.5 ave 563 max 267 min
Histogram: 1 0 1 0 2 0 0 0 1 3

Total # of neighbors = 3588
Ave neighs/atom = 8.54286
Neighbor list builds = 620
Dangerous builds = 0

# run without indenter

unfix           4
run		30000
Per MPI rank memory allocation (min/avg/max) = 3.047 | 3.047 | 3.047 Mbytes
Step Temp E_pair E_mol TotEng Press Volume 
   30000   0.12234609   -3.0495496            0   -2.9449728   0.89399886    487.65665 
   31000    0.1148833     -3.05349            0   -2.9552921  -0.26414028    493.20647 
   32000   0.12236005   -3.0341948            0   -2.9296061 -0.088792456    493.09833 
   33000   0.11300125   -3.0504458            0   -2.9538566   0.41710965    484.49633 
   34000   0.11377608   -3.0667066            0   -2.9694551  -0.55726364    485.32571 
   35000   0.11874087   -3.0601991            0    -2.958704  -0.40682875    491.31161 
   36000   0.12398026   -3.0785256            0    -2.972552 -0.082828752    483.47693 
   37000   0.11963644   -3.0616409            0   -2.9593803  -0.48392758    491.06677 
   38000   0.11197466   -3.0703158            0   -2.9746042  -0.32466762    487.84414 
   39000   0.11122204   -3.0696716            0   -2.9746033 -0.083793492    484.67516 
   40000   0.10516597   -3.0644959            0   -2.9746041  -0.54828599    488.96539 
   41000   0.12364022   -3.0703064            0   -2.9646235  -0.27070368    485.64296 
   42000   0.11251932   -3.0712781            0   -2.9751009  -0.22184626    485.83626 
   43000   0.11023383   -3.0693243            0   -2.9751006  -0.44099867    488.57339 
   44000   0.12081565   -3.0783684            0   -2.9750998  -0.12685426    482.60776 
   45000   0.12029013   -3.0779234            0    -2.975104  -0.32604969    487.63764 
   46000   0.11311427   -3.0717857            0      -2.9751  -0.41490762    487.59895 
   47000   0.10703037   -3.0665873            0   -2.9751018 -0.077284956    483.39261 
   48000   0.11104809    -3.070018            0   -2.9750983  -0.42577315    489.10517 
   49000   0.11713726   -3.0752273            0   -2.9751028  -0.30148678    487.01196 
   50000   0.11267493   -3.0818255            0   -2.9855152  -0.24867442    484.42673 
   51000   0.12186006    -3.076015            0   -2.9718537  -0.52508779    489.17623 
   52000   0.10881759   -3.0648645            0   -2.9718513  -0.24242031    485.95689 
   53000   0.11342938    -3.068805            0   -2.9718499  -0.28652592    486.64552 
   54000   0.12195474   -3.0642034            0   -2.9599611  -0.32759045    487.76734 
   55000   0.12335527   -3.0766344            0    -2.971195  -0.28381055    485.42965 
   56000   0.11551911    -3.069934            0   -2.9711926  -0.33878138    487.74341 
   57000   0.11202746   -3.0669504            0   -2.9711936  -0.39065623    487.66792 
   58000   0.11927821   -3.0731482            0   -2.9711937  -0.26466785    485.58727 
   59000   0.12042261   -3.0741284            0   -2.9711958  -0.33061528    489.38706 
   60000   0.11637758   -3.0706718            0   -2.9711967  -0.39535539    489.84288 
Loop time of 0.687711 on 8 procs for 30000 steps with 420 atoms

Performance: 11307080.846 tau/day, 43622.997 timesteps/s
100.0% CPU use with 8 MPI tasks x no OpenMP threads

MPI task timing breakdown:
Section |  min time  |  avg time  |  max time  |%varavg| %total
---------------------------------------------------------------
Pair    | 0.14623    | 0.19538    | 0.22263    |   7.0 | 28.41
Neigh   | 0.007031   | 0.0086548  | 0.0095754  |   1.0 |  1.26
Comm    | 0.2988     | 0.33629    | 0.39694    |   6.6 | 48.90
Output  | 0.00060343 | 0.00062365 | 0.00069063 |   0.0 |  0.09
Modify  | 0.033635   | 0.04068    | 0.043725   |   1.9 |  5.92
Other   |            | 0.1061     |            |       | 15.42

Nlocal:    52.5 ave 61 max 38 min
Histogram: 1 1 0 0 0 2 0 0 0 4
Nghost:    76.875 ave 81 max 72 min
Histogram: 1 0 2 0 0 1 0 3 0 1
Neighs:    445 ave 552 max 296 min
Histogram: 2 0 0 1 1 0 0 0 0 4

Total # of neighbors = 3560
Ave neighs/atom = 8.47619
Neighbor list builds = 626
Dangerous builds = 0
Total wall time: 0:00:01
