LAMMPS (4 Jan 2019)
# 2d indenter simulation with minimization instead of dynamics

dimension     2
boundary      p s p

atom_style    atomic
neighbor      0.3 bin
neigh_modify  delay 5

# create geometry

lattice	      hex 0.9
Lattice spacing in x,y,z = 1.1327 1.96189 1.1327
region	      box block 0 20 0 10 -0.25 0.25
create_box    2 box
Created orthogonal box = (0 0 -0.283174) to (22.6539 19.6189 0.283174)
  4 by 2 by 1 MPI processor grid
create_atoms  1 box
Created 420 atoms
  Time spent = 0.00080749 secs

mass	      * 1.0

# LJ potentials

pair_style    lj/cut 2.5
pair_coeff    * * 1.0 1.0 2.5

# define groups

region        1 block INF INF INF 1.25 INF INF
group	      lower region 1
60 atoms in group lower
group	      mobile subtract all lower
360 atoms in group mobile
set	      group lower type 2
  60 settings made for type

# initial velocities

fix	      2 lower setforce 0.0 0.0 0.0

# indenter

fix	      5 all enforce2d

# minimize with indenter

thermo	      10

#dump	      1 all atom 10 dump.indent

#dump	      2 all image 25 image.*.jpg type type #	      zoom 1.6 adiam 1.5
#dump_modify   2 pad 4

#dump	      3 all movie 25 movie.mpg type type #	      zoom 1.6 adiam 1.5
#dump_modify   3 pad 4

minimize      1.0e-6 1.0e-6 1000 1000
WARNING: Using 'neigh_modify every 1 delay 0 check yes' setting during minimization (../min.cpp:168)
Neighbor list info ...
  update every 1 steps, delay 0 steps, check yes
  max neighbors/atom: 2000, page size: 100000
  master list distance cutoff = 2.8
  ghost atom cutoff = 2.8
  binsize = 1.4, bins = 17 15 1
  1 neighbor lists, perpetual/occasional/extra = 1 0 0
  (1) pair lj/cut, perpetual
      attributes: half, newton on
      pair build: half/bin/atomonly/newton
      stencil: half/bin/2d/newton
      bin: standard
Per MPI rank memory allocation (min/avg/max) = 4.172 | 4.172 | 4.172 Mbytes
Step Temp E_pair E_mol TotEng Press Volume 
       0            0   -3.1727576            0   -3.1727576   -1.5977027    444.53333 
      10            0   -3.1815908            0   -3.1815908   -1.1226904    440.57558 
      20            0   -3.1895471            0   -3.1895471  -0.86027602    436.93033 
      30            0   -3.1908366            0   -3.1908366  -0.72179223    436.93033 
      35            0   -3.1909386            0   -3.1909386  -0.69788745    433.53082 
Loop time of 0.00520567 on 8 procs for 35 steps with 420 atoms

93.4% CPU use with 8 MPI tasks x no OpenMP threads

Minimization stats:
  Stopping criterion = energy tolerance
  Energy initial, next-to-last, final = 
        -3.17275755126     -3.19093697812     -3.19093855395
  Force two-norm initial, final = 6.74302 0.230475
  Force max component initial, final = 1.46877 0.0236603
  Final line search alpha, max atom move = 1 0.0236603
  Iterations, force evaluations = 35 70

MPI task timing breakdown:
Section |  min time  |  avg time  |  max time  |%varavg| %total
---------------------------------------------------------------
Pair    | 0.001133   | 0.001323   | 0.0015231  |   0.4 | 25.41
Neigh   | 9.428e-05  | 0.00010786 | 0.0001235  |   0.0 |  2.07
Comm    | 0.0014496  | 0.0017152  | 0.0020276  |   0.4 | 32.95
Output  | 9.2339e-05 | 9.7677e-05 | 0.00010895 |   0.0 |  1.88
Modify  | 5.2755e-05 | 5.9747e-05 | 7.2744e-05 |   0.0 |  1.15
Other   |            | 0.001902   |            |       | 36.54

Nlocal:    52.5 ave 57 max 50 min
Histogram: 4 0 0 0 1 0 0 2 0 1
Nghost:    71.5 ave 74 max 67 min
Histogram: 1 0 2 0 0 1 0 0 0 4
Neighs:    447.5 ave 513 max 396 min
Histogram: 4 0 0 0 0 0 1 0 2 1

Total # of neighbors = 3580
Ave neighs/atom = 8.52381
Neighbor list builds = 4
Dangerous builds = 0

variable      k equal 5000.0/xlat
variable      k1 equal 1000.0/xlat

fix           4 all indent $k sphere 10 13.0 0 6.0
fix           4 all indent 4414.24643457407 sphere 10 13.0 0 6.0
fix_modify    4 energy yes
minimize      1.0e-6 1.0e-6 1000 1000
WARNING: Using 'neigh_modify every 1 delay 0 check yes' setting during minimization (../min.cpp:168)
Per MPI rank memory allocation (min/avg/max) = 4.172 | 4.172 | 4.172 Mbytes
Step Temp E_pair E_mol TotEng Press Volume 
      35            0   -3.1909386            0    -2.174369   -0.6944516    435.67574 
      40            0   -3.1462704            0   -3.1261242  -0.20646557    435.67534 
      50            0    -3.174757            0    -3.173603  -0.34916248    436.00326 
      60            0   -3.1789904            0   -3.1780198  -0.31146423    436.06053 
      70            0   -3.1800572            0   -3.1792392  -0.27664904    436.09293 
      80            0   -3.1808315            0   -3.1799813  -0.24091474    435.00572 
      90            0   -3.1810856            0   -3.1803991  -0.17713923    433.03804 
     100            0   -3.1812307            0   -3.1805381   -0.1530501    434.96379 
     110            0   -3.1812588            0   -3.1805938   -0.1250461    432.50684 
     111            0   -3.1812728            0   -3.1805961  -0.12407121    432.50684 
Loop time of 0.00998942 on 8 procs for 76 steps with 420 atoms

100.0% CPU use with 8 MPI tasks x no OpenMP threads

Minimization stats:
  Stopping criterion = energy tolerance
  Energy initial, next-to-last, final = 
        -2.17436899357     -3.18059381915     -3.18059607048
  Force two-norm initial, final = 1618.56 0.444008
  Force max component initial, final = 1191.42 0.168707
  Final line search alpha, max atom move = 0.428866 0.0723529
  Iterations, force evaluations = 76 147

MPI task timing breakdown:
Section |  min time  |  avg time  |  max time  |%varavg| %total
---------------------------------------------------------------
Pair    | 0.0015502  | 0.0020199  | 0.0028519  |   1.0 | 20.22
Neigh   | 0.00028572 | 0.00034663 | 0.00048234 |   0.0 |  3.47
Comm    | 0.0025325  | 0.0033711  | 0.0038705  |   0.8 | 33.75
Output  | 0.00019315 | 0.00020479 | 0.00022607 |   0.0 |  2.05
Modify  | 0.00016382 | 0.00020432 | 0.0002866  |   0.0 |  2.05
Other   |            | 0.003843   |            |       | 38.47

Nlocal:    52.5 ave 57 max 48 min
Histogram: 1 1 0 1 1 1 0 2 0 1
Nghost:    73.75 ave 77 max 70 min
Histogram: 2 0 0 0 1 1 0 2 1 1
Neighs:    449.5 ave 515 max 391 min
Histogram: 2 1 1 0 0 0 0 1 2 1

Total # of neighbors = 3596
Ave neighs/atom = 8.5619
Neighbor list builds = 19
Dangerous builds = 0

fix           4 all indent ${k1} sphere 10 12.5 0 6.0
fix           4 all indent 882.849286914813 sphere 10 12.5 0 6.0
fix_modify    4 energy yes
minimize      1.0e-6 1.0e-6 1000 1000
WARNING: Using 'neigh_modify every 1 delay 0 check yes' setting during minimization (../min.cpp:168)
Per MPI rank memory allocation (min/avg/max) = 4.172 | 4.172 | 4.172 Mbytes
Step Temp E_pair E_mol TotEng Press Volume 
     111            0   -3.1812728            0  -0.21796949  -0.12362162    434.07977 
     120            0   -2.9592755            0   -2.8003562    1.9418397     434.0832 
     130            0   -3.0632093            0   -3.0453082    1.4275814    434.09622 
     140            0   -3.0947739            0   -3.0852867    1.2276154    434.51983 
     150            0   -3.1008901            0   -3.0931811    1.1938163    434.52998 
     160            0   -3.1026159            0   -3.0950306    1.2229152    434.35672 
     170            0    -3.103296            0   -3.0962512    1.3134397    432.20447 
     180            0   -3.1041303            0   -3.0969544    1.3751476    430.37008 
     190            0   -3.1043442            0   -3.0970792    1.3921008    430.37008 
     193            0   -3.1043343            0   -3.0970891    1.3934833    430.37008 
Loop time of 0.0101662 on 8 procs for 82 steps with 420 atoms

99.7% CPU use with 8 MPI tasks x no OpenMP threads

Minimization stats:
  Stopping criterion = energy tolerance
  Energy initial, next-to-last, final = 
       -0.217969489846      -3.0970866139      -3.0970890844
  Force two-norm initial, final = 1754.38 0.645675
  Force max component initial, final = 924.68 0.156079
  Final line search alpha, max atom move = 0.959832 0.14981
  Iterations, force evaluations = 82 156

MPI task timing breakdown:
Section |  min time  |  avg time  |  max time  |%varavg| %total
---------------------------------------------------------------
Pair    | 0.0015637  | 0.0021204  | 0.0030397  |   1.1 | 20.86
Neigh   | 0.00018326 | 0.00024149 | 0.00036071 |   0.0 |  2.38
Comm    | 0.0024587  | 0.0033704  | 0.0039988  |   0.9 | 33.15
Output  | 0.0001912  | 0.00020111 | 0.0002256  |   0.0 |  1.98
Modify  | 0.00016833 | 0.00021442 | 0.00030501 |   0.0 |  2.11
Other   |            | 0.004018   |            |       | 39.53

Nlocal:    52.5 ave 57 max 47 min
Histogram: 1 1 0 1 0 1 0 1 1 2
Nghost:    79.25 ave 84 max 75 min
Histogram: 1 1 0 0 2 2 1 0 0 1
Neighs:    458.25 ave 513 max 405 min
Histogram: 2 1 0 1 0 0 1 1 0 2

Total # of neighbors = 3666
Ave neighs/atom = 8.72857
Neighbor list builds = 14
Dangerous builds = 0

fix           4 all indent ${k1} sphere 10 12.0 0 6.0
fix           4 all indent 882.849286914813 sphere 10 12.0 0 6.0
fix_modify    4 energy yes
minimize      1.0e-6 1.0e-6 1000 1000
WARNING: Using 'neigh_modify every 1 delay 0 check yes' setting during minimization (../min.cpp:168)
Per MPI rank memory allocation (min/avg/max) = 4.172 | 4.172 | 4.172 Mbytes
Step Temp E_pair E_mol TotEng Press Volume 
     193            0   -3.1043343            0    2.0111836     1.391011    431.13499 
     200            0   -2.5918444            0   -1.9319899    5.5076533     431.1832 
     210            0   -2.8122253            0   -2.7440943    4.2756238    439.47268 
     220            0   -2.9102756            0   -2.8879774    3.5959489    444.98822 
     230            0    -2.949226            0   -2.9335902    3.2079485    451.92093 
     240            0   -2.9611166            0   -2.9486969    3.1239457    452.59301 
     250            0   -2.9644693            0   -2.9549934    3.0487479    455.58653 
     260            0   -2.9717652            0   -2.9622044    2.8546226    458.37854 
     270            0   -3.0153992            0   -3.0062341    2.0963776      462.628 
     280            0   -3.0654562            0   -3.0583493    1.4179379    469.37573 
     290            0   -3.1018799            0   -3.0963799    1.1195746    472.38213 
     300            0   -3.1108438            0   -3.1046867    1.0454323    471.05266 
     310            0   -3.1126793            0   -3.1060896    1.0282929    470.58072 
     311            0   -3.1126793            0   -3.1060896    1.0282929    470.58072 
Loop time of 0.0159965 on 8 procs for 118 steps with 420 atoms

100.0% CPU use with 8 MPI tasks x no OpenMP threads

Minimization stats:
  Stopping criterion = linesearch alpha is zero
  Energy initial, next-to-last, final = 
         2.01118361004     -3.10608957045     -3.10608957045
  Force two-norm initial, final = 2329.79 2.78856
  Force max component initial, final = 1038.41 0.595863
  Final line search alpha, max atom move = 4.2365e-07 2.52437e-07
  Iterations, force evaluations = 118 262

MPI task timing breakdown:
Section |  min time  |  avg time  |  max time  |%varavg| %total
---------------------------------------------------------------
Pair    | 0.0022818  | 0.0035045  | 0.0048776  |   1.5 | 21.91
Neigh   | 0.00042451 | 0.00052742 | 0.00071976 |   0.0 |  3.30
Comm    | 0.0039928  | 0.0053598  | 0.0067418  |   1.2 | 33.51
Output  | 0.0002658  | 0.0002819  | 0.00031179 |   0.0 |  1.76
Modify  | 0.00025288 | 0.00034286 | 0.0004724  |   0.0 |  2.14
Other   |            | 0.00598    |            |       | 37.38

Nlocal:    52.5 ave 62 max 38 min
Histogram: 2 0 0 0 0 1 1 1 1 2
Nghost:    78 ave 86 max 70 min
Histogram: 2 0 1 0 1 0 1 1 1 1
Neighs:    447.125 ave 558 max 296 min
Histogram: 2 0 0 0 1 1 0 0 2 2

Total # of neighbors = 3577
Ave neighs/atom = 8.51667
Neighbor list builds = 28
Dangerous builds = 0

fix           4 all indent ${k1} sphere 10 11.4 0 6.0
fix           4 all indent 882.849286914813 sphere 10 11.4 0 6.0
fix_modify    4 energy yes
minimize      1.0e-6 1.0e-6 1000 1000
WARNING: Using 'neigh_modify every 1 delay 0 check yes' setting during minimization (../min.cpp:168)
Per MPI rank memory allocation (min/avg/max) = 4.172 | 4.172 | 4.172 Mbytes
Step Temp E_pair E_mol TotEng Press Volume 
     311            0   -3.1126793            0    5.3458688    1.0271129    471.12138 
     320            0    -2.540735            0   -1.3626184    5.4140917    471.16235 
     330            0   -2.6928021            0   -2.5973827    4.9724844    475.77448 
     340            0   -2.8789123            0   -2.8548065    3.7466547    478.40478 
     350            0   -2.9262379            0    -2.911548    3.3310404    482.31671 
     360            0   -2.9391516            0   -2.9281336     3.181441    484.31336 
     370            0   -2.9518815            0   -2.9455919    2.8178461    487.89504 
     380            0   -2.9743873            0   -2.9650905    2.4428708    491.95656 
     390            0   -2.9942975            0   -2.9819113    2.2567875     490.9692 
     400            0   -3.0113921            0   -2.9986603      2.05311    491.22829 
     410            0   -3.0160446            0   -3.0034506    1.9766248    492.49572 
     420            0   -3.0340953            0   -3.0228016    1.7904668     493.0586 
     430            0   -3.0410185            0   -3.0289479    1.7448351    492.75185 
     440            0   -3.0435201            0   -3.0309087     1.737373    492.74065 
     450            0    -3.044043            0   -3.0315583    1.7426941    492.74065 
     460            0   -3.0441662            0   -3.0318942    1.7410989    493.23237 
Loop time of 0.0222635 on 8 procs for 149 steps with 420 atoms

100.0% CPU use with 8 MPI tasks x no OpenMP threads

Minimization stats:
  Stopping criterion = linesearch alpha is zero
  Energy initial, next-to-last, final = 
         5.34586882288     -3.03189420983     -3.03189420983
  Force two-norm initial, final = 3149.94 2.75905
  Force max component initial, final = 1385.26 0.738366
  Final line search alpha, max atom move = 6.45581e-07 4.76675e-07
  Iterations, force evaluations = 149 321

MPI task timing breakdown:
Section |  min time  |  avg time  |  max time  |%varavg| %total
---------------------------------------------------------------
Pair    | 0.0020268  | 0.0043376  | 0.0074508  |   2.4 | 19.48
Neigh   | 0.00036641 | 0.00061211 | 0.00093117 |   0.0 |  2.75
Comm    | 0.0053807  | 0.007822   | 0.011169   |   1.9 | 35.13
Output  | 0.00034016 | 0.00035835 | 0.00039851 |   0.0 |  1.61
Modify  | 0.00026373 | 0.00043192 | 0.00074821 |   0.0 |  1.94
Other   |            | 0.008702   |            |       | 39.08

Nlocal:    52.5 ave 63 max 32 min
Histogram: 2 0 0 0 0 0 0 1 2 3
Nghost:    80.5 ave 88 max 72 min
Histogram: 2 0 0 1 1 0 1 0 1 2
Neighs:    463.375 ave 582 max 236 min
Histogram: 1 1 0 0 0 0 1 1 1 3

Total # of neighbors = 3707
Ave neighs/atom = 8.82619
Neighbor list builds = 33
Dangerous builds = 0

fix           4 all indent ${k1} sphere 10 11.2 0 6.0
fix           4 all indent 882.849286914813 sphere 10 11.2 0 6.0
fix_modify    4 energy yes
minimize      1.0e-6 1.0e-6 1000 1000
WARNING: Using 'neigh_modify every 1 delay 0 check yes' setting during minimization (../min.cpp:168)
Per MPI rank memory allocation (min/avg/max) = 4.172 | 4.172 | 4.172 Mbytes
Step Temp E_pair E_mol TotEng Press Volume 
     460            0   -3.0441662            0   -2.5815898    1.7420239    492.97048 
     470            0   -2.9555016            0   -2.9205849    2.6805411    493.01531 
     480            0   -2.9598961            0   -2.9392918    2.6878965    492.64733 
     490            0   -2.9666703            0   -2.9463656    2.6710651    492.57753 
     500            0   -2.9700309            0   -2.9511924    2.7039141    491.98328 
     510            0   -2.9720211            0    -2.955161    2.7381619      491.419 
     520            0   -2.9783183            0   -2.9620905    2.7387545    491.27109 
     530            0   -2.9892018            0   -2.9751407    2.6580604    491.22848 
     540            0   -3.0019284            0   -2.9879015    2.5599129    491.94032 
     550            0   -3.0041778            0   -2.9907867    2.5017254    494.30495 
     560            0      -3.0134            0   -3.0034655    2.1464924    508.37602 
     570            0   -3.0238713            0   -3.0154706    1.9226693    513.30386 
     580            0   -3.0364601            0   -3.0286839    1.6396368    515.16319 
     590            0   -3.0485074            0    -3.040546    1.5262355    515.74454 
     600            0   -3.0545649            0     -3.04583    1.5003076    513.66763 
     610            0   -3.0601664            0   -3.0523463    1.4420866    512.16419 
     620            0   -3.0711117            0    -3.064802    1.1575653    514.35468 
     630            0    -3.085132            0   -3.0810531    1.0401429    514.39985 
     640            0   -3.0908197            0   -3.0864846   0.99218712    513.60015 
     650            0   -3.0938622            0   -3.0892633   0.90943091    513.14877 
     660            0   -3.0969049            0   -3.0920497   0.76907021    515.09122 
     670            0    -3.122053            0   -3.1167101   0.29399517    521.28963 
     680            0   -3.1329449            0   -3.1276655   0.23803869    520.93987 
     690            0   -3.1364553            0   -3.1308515   0.25717202    518.75921 
     700            0   -3.1380779            0   -3.1329226   0.34335076    518.75921 
     710            0   -3.1383652            0   -3.1336245   0.39306914    516.78383 
     720            0   -3.1383767            0   -3.1337086   0.40010342    518.41521 
     725            0   -3.1383479            0   -3.1337279   0.40371049    518.41521 
Loop time of 0.0271793 on 8 procs for 265 steps with 420 atoms

100.0% CPU use with 8 MPI tasks x no OpenMP threads

Minimization stats:
  Stopping criterion = energy tolerance
  Energy initial, next-to-last, final = 
        -2.58158982843     -3.13372523516     -3.13372792361
  Force two-norm initial, final = 425.679 0.593469
  Force max component initial, final = 240.912 0.130773
  Final line search alpha, max atom move = 0.718856 0.0940069
  Iterations, force evaluations = 265 525

MPI task timing breakdown:
Section |  min time  |  avg time  |  max time  |%varavg| %total
---------------------------------------------------------------
Pair    | 0.0027751  | 0.0061403  | 0.0077686  |   2.5 | 22.59
Neigh   | 0.00044695 | 0.00089763 | 0.0010845  |   0.0 |  3.30
Comm    | 0.0060899  | 0.0085447  | 0.012702   |   2.4 | 31.44
Output  | 0.00049934 | 0.00051575 | 0.00059151 |   0.0 |  1.90
Modify  | 0.00039377 | 0.0006301  | 0.00074249 |   0.0 |  2.32
Other   |            | 0.01045    |            |       | 38.45

Nlocal:    52.5 ave 67 max 23 min
Histogram: 2 0 0 0 0 0 1 0 1 4
Nghost:    77.75 ave 89 max 64 min
Histogram: 2 0 1 1 0 0 0 0 1 3
Neighs:    443.375 ave 603 max 160 min
Histogram: 2 0 0 0 0 1 1 0 0 4

Total # of neighbors = 3547
Ave neighs/atom = 8.44524
Neighbor list builds = 51
Dangerous builds = 0

fix	      4 all indent ${k1} sphere 10 11.0 0 6.0
fix	      4 all indent 882.849286914813 sphere 10 11.0 0 6.0
fix_modify    4 energy yes
minimize      1.0e-6 1.0e-6 1000 1000
WARNING: Using 'neigh_modify every 1 delay 0 check yes' setting during minimization (../min.cpp:168)
Per MPI rank memory allocation (min/avg/max) = 4.172 | 4.172 | 4.172 Mbytes
Step Temp E_pair E_mol TotEng Press Volume 
     725            0   -3.1383479            0   -2.7968238   0.40450929    517.39148 
     730            0    -3.074799            0   -3.0459626    1.0876076    517.38707 
     740            0   -3.0899955            0   -3.0740145    1.0677228    517.53885 
     750            0   -3.0920904            0   -3.0791346    1.0810079    517.02726 
     760            0    -3.092798            0   -3.0802647    1.0911372    516.13402 
     770            0   -3.0921517            0   -3.0819922    1.1646502     514.2533 
     780            0   -3.0936511            0   -3.0828754    1.2019506    514.27282 
     790            0   -3.0935503            0   -3.0830422    1.2231047     513.3377 
     796            0   -3.0935575            0   -3.0830732    1.2285723     513.3377 
Loop time of 0.00860578 on 8 procs for 71 steps with 420 atoms

100.0% CPU use with 8 MPI tasks x no OpenMP threads

Minimization stats:
  Stopping criterion = linesearch alpha is zero
  Energy initial, next-to-last, final = 
        -2.79682376963     -3.08307320308     -3.08307320308
  Force two-norm initial, final = 363.669 1.47035
  Force max component initial, final = 162.257 0.477782
  Final line search alpha, max atom move = 1.25269e-06 5.98511e-07
  Iterations, force evaluations = 71 173

MPI task timing breakdown:
Section |  min time  |  avg time  |  max time  |%varavg| %total
---------------------------------------------------------------
Pair    | 0.00073108 | 0.0019586  | 0.0026975  |   1.7 | 22.76
Neigh   | 0.00014774 | 0.00034285 | 0.0004764  |   0.0 |  3.98
Comm    | 0.0020077  | 0.0028562  | 0.0042715  |   1.6 | 33.19
Output  | 0.00013093 | 0.00013466 | 0.00015719 |   0.0 |  1.56
Modify  | 0.00012004 | 0.00020664 | 0.00025275 |   0.0 |  2.40
Other   |            | 0.003107   |            |       | 36.10

Nlocal:    52.5 ave 67 max 23 min
Histogram: 2 0 0 0 0 0 0 2 0 4
Nghost:    79.375 ave 93 max 63 min
Histogram: 1 1 0 1 1 0 0 1 1 2
Neighs:    449.25 ave 603 max 165 min
Histogram: 2 0 0 0 0 0 2 0 0 4

Total # of neighbors = 3594
Ave neighs/atom = 8.55714
Neighbor list builds = 24
Dangerous builds = 0
Total wall time: 0:00:00
