LAMMPS (27 Oct 2021)
variable number	equal 2
variable ofreq	equal 1000
variable efreq	equal 1000
variable T      equal 0.1
variable rhos   equal 0.5

units lj

dimension 3

newton on

boundary  p p p

atom_style hybrid bond ellipsoid oxdna
WARNING: Atom style hybrid defines both, per-type and per-atom masses; both must be set, but only per-atom masses will be used (src/atom_vec_hybrid.cpp:157)
atom_modify sort 0 1.0

# Pair interactions require lists of neighbours to be calculated
neighbor 2.0 bin
neigh_modify every 1 delay 0 check yes

read_data data.duplex2
Reading data file ...
  orthogonal box = (-20.000000 -20.000000 -20.000000) to (20.000000 20.000000 20.000000)
  2 by 2 by 2 MPI processor grid
  reading atoms ...
  16 atoms
  reading velocities ...
  16 velocities
  scanning bonds ...
  1 = max bonds/atom
  16 ellipsoids
  reading bonds ...
  13 bonds
Finding 1-2 1-3 1-4 neighbors ...
  special bond factors lj:    0        0        0       
  special bond factors coul:  0        0        0       
     2 = max # of 1-2 neighbors
     2 = max # of 1-3 neighbors
     4 = max # of 1-4 neighbors
     6 = max # of special neighbors
  special bonds CPU = 0.000 seconds
  read_data CPU = 0.002 seconds

set atom * mass 3.1575
Setting atom values ...
  16 settings made for mass

group all type 1 4
16 atoms in group all

# oxRNA2 bond interactions - FENE backbone
bond_style oxrna2/fene
bond_coeff * 2.0 0.25 0.761070781051
special_bonds lj 0 1 1
Finding 1-2 1-3 1-4 neighbors ...
  special bond factors lj:    0        1        1       
  special bond factors coul:  0        0        0       
     2 = max # of 1-2 neighbors
     2 = max # of 1-3 neighbors
     4 = max # of 1-4 neighbors
     6 = max # of special neighbors
  special bonds CPU = 0.000 seconds

# oxRNA2 pair interactions
pair_style hybrid/overlay oxrna2/excv oxrna2/stk oxrna2/hbond oxrna2/xstk oxrna2/coaxstk oxrna2/dh
pair_coeff * * oxrna2/excv    2.0 0.7 0.675 2.0 0.515 0.5 2.0 0.33 0.32
pair_coeff * * oxrna2/stk     seqdep ${T} 1.40206 2.77 6.0 0.43 0.93 0.35 0.78 0.9 0 0.95 0.9 0 0.95 1.3 0 0.8 1.3 0 0.8 2.0 0.65 2.0 0.65
pair_coeff * * oxrna2/stk     seqdep 0.1 1.40206 2.77 6.0 0.43 0.93 0.35 0.78 0.9 0 0.95 0.9 0 0.95 1.3 0 0.8 1.3 0 0.8 2.0 0.65 2.0 0.65
pair_coeff * * oxrna2/hbond   seqdep 0.0 8.0 0.4 0.75 0.34 0.7 1.5 0 0.7 1.5 0 0.7 1.5 0 0.7 0.46 3.141592653589793 0.7 4.0 1.5707963267948966 0.45 4.0 1.5707963267948966 0.45
pair_coeff 1 4 oxrna2/hbond   seqdep 0.870439 8.0 0.4 0.75 0.34 0.7 1.5 0 0.7 1.5 0 0.7 1.5 0 0.7 0.46 3.141592653589793 0.7 4.0 1.5707963267948966 0.45 4.0 1.5707963267948966 0.45
pair_coeff 2 3 oxrna2/hbond   seqdep 0.870439 8.0 0.4 0.75 0.34 0.7 1.5 0 0.7 1.5 0 0.7 1.5 0 0.7 0.46 3.141592653589793 0.7 4.0 1.5707963267948966 0.45 4.0 1.5707963267948966 0.45
pair_coeff 3 4 oxrna2/hbond   seqdep 0.870439 8.0 0.4 0.75 0.34 0.7 1.5 0 0.7 1.5 0 0.7 1.5 0 0.7 0.46 3.141592653589793 0.7 4.0 1.5707963267948966 0.45 4.0 1.5707963267948966 0.45
pair_coeff * * oxrna2/xstk    59.9626 0.5 0.6 0.42 0.58 2.25 0.505 0.58 1.7 1.266 0.68 1.7 1.266 0.68 1.7 0.309 0.68 1.7 0.309 0.68
pair_coeff * * oxrna2/coaxstk 80 0.5 0.6 0.42 0.58 2.0 2.592 0.65 1.3 0.151 0.8 0.9 0.685 0.95 0.9 0.685 0.95 2.0 -0.65 2.0 -0.65
pair_coeff * * oxrna2/dh      ${T} ${rhos} 1.02455
pair_coeff * * oxrna2/dh      0.1 ${rhos} 1.02455
pair_coeff * * oxrna2/dh      0.1 0.5 1.02455

# NVE ensemble
fix 1 all nve/asphere
#fix 2 all langevin ${T} ${T} 2.5 457145 angmom 10

timestep 1e-5

#comm_style tiled
fix 3 all balance 1000 1.03 shift xyz 10 1.03
comm_modify cutoff 3.8

compute quat all property/atom quatw quati quatj quatk

compute erot all erotate/asphere
compute ekin all ke
compute epot all pe
variable erot equal c_erot
variable ekin equal c_ekin
variable epot equal c_epot
variable etot equal c_erot+c_ekin+c_epot
fix 5 all print ${efreq} "$(step)  ekin = ${ekin} |  erot = ${erot} | epot = ${epot} | etot = ${etot}" screen yes
fix 5 all print 1000 "$(step)  ekin = ${ekin} |  erot = ${erot} | epot = ${epot} | etot = ${etot}" screen yes

dump out all custom ${ofreq} out.${number}.lammpstrj id mol type x y z ix iy iz vx vy vz c_quat[1] c_quat[2] c_quat[3] c_quat[4] angmomx angmomy angmomz
dump out all custom 1000 out.${number}.lammpstrj id mol type x y z ix iy iz vx vy vz c_quat[1] c_quat[2] c_quat[3] c_quat[4] angmomx angmomy angmomz
dump out all custom 1000 out.2.lammpstrj id mol type x y z ix iy iz vx vy vz c_quat[1] c_quat[2] c_quat[3] c_quat[4] angmomx angmomy angmomz
dump_modify out sort id
dump_modify out format line "%d %d %d  %22.15le %22.15le %22.15le  %d %d %d  %22.15le %22.15le %22.15le  %22.15le %22.15le %22.15le %22.15le  %22.15le %22.15le %22.15le"

run 1000000
Neighbor list info ...
  update every 1 steps, delay 0 steps, check yes
  max neighbors/atom: 2000, page size: 100000
  master list distance cutoff = 4.3014979
  ghost atom cutoff = 4.3014979
  binsize = 2.150749, bins = 19 19 19
  5 neighbor lists, perpetual/occasional/extra = 5 0 0
  (1) pair oxrna2/excv, perpetual
      attributes: half, newton on
      pair build: half/bin/newton
      stencil: half/bin/3d
      bin: standard
  (2) pair oxrna2/hbond, perpetual, copy from (1)
      attributes: half, newton on
      pair build: copy
      stencil: none
      bin: none
  (3) pair oxrna2/xstk, perpetual, copy from (1)
      attributes: half, newton on
      pair build: copy
      stencil: none
      bin: none
  (4) pair oxrna2/coaxstk, perpetual, copy from (1)
      attributes: half, newton on
      pair build: copy
      stencil: none
      bin: none
  (5) pair oxrna2/dh, perpetual, copy from (1)
      attributes: half, newton on
      pair build: copy
      stencil: none
      bin: none
WARNING: Communication cutoff adjusted to 4.301497916929199 (src/comm.cpp:737)
0  ekin = 2.70475393009871 |  erot = 2.80172072918779 | epot = -11.1349465280232 | etot = -5.62847186873667
Per MPI rank memory allocation (min/avg/max) = 9.320 | 9.349 | 9.436 Mbytes
Step Temp E_pair E_mol TotEng Press Volume 
       0   0.12021129   -0.7299505  0.034016337  -0.52688704 5.1214421e-05        64000 
1000  ekin = 2.74425239815417 |  erot = 2.79065458610893 | epot = -11.1633788526891 | etot = -5.62847186842597
2000  ekin = 2.78841691867035 |  erot = 2.77992540099535 | epot = -11.196814187725 | etot = -5.62847186805933
3000  ekin = 2.83938215410022 |  erot = 2.77185117591643 | epot = -11.2397051978034 | etot = -5.62847186778671
4000  ekin = 2.89876217830263 |  erot = 2.76816783884242 | epot = -11.295401884792 | etot = -5.62847186764698
5000  ekin = 2.96742170720769 |  erot = 2.76919345829435 | epot = -11.3650870331989 | etot = -5.62847186769689
6000  ekin = 3.0456300737104 |  erot = 2.77376672268248 | epot = -11.4478686641706 | etot = -5.62847186777775
7000  ekin = 3.13407886898538 |  erot = 2.78065913591456 | epot = -11.5432098726294 | etot = -5.62847186772945
8000  ekin = 3.23400863287743 |  erot = 2.78938863934857 | epot = -11.6518691398931 | etot = -5.62847186766706
9000  ekin = 3.34625998930258 |  erot = 2.80019523753783 | epot = -11.7749270943235 | etot = -5.62847186748308
10000  ekin = 3.47220350616334 |  erot = 2.81464622815281 | epot = -11.9153216015116 | etot = -5.62847186719546
11000  ekin = 3.61341090096018 |  erot = 2.83541090219847 | epot = -12.0772936703878 | etot = -5.62847186722916
12000  ekin = 3.76971728921062 |  erot = 2.86516610449088 | epot = -12.2633552607298 | etot = -5.62847186702834
13000  ekin = 3.94105577714468 |  erot = 2.90597306806354 | epot = -12.4755007121566 | etot = -5.62847186694836
14000  ekin = 4.12730744896758 |  erot = 2.95952862137379 | epot = -12.7153079373024 | etot = -5.62847186696101
15000  ekin = 4.32776706381551 |  erot = 3.02701108512249 | epot = -12.9832500158854 | etot = -5.62847186694736
16000  ekin = 4.54139695680685 |  erot = 3.10924468066176 | epot = -13.2791135046205 | etot = -5.62847186715187
17000  ekin = 4.76575661763823 |  erot = 3.2060435537309 | epot = -13.60027203892 | etot = -5.62847186755086
18000  ekin = 4.99700491214683 |  erot = 3.31611869568265 | epot = -13.9415954758898 | etot = -5.62847186806028
19000  ekin = 5.23048108112189 |  erot = 3.43700077146759 | epot = -14.2959537213472 | etot = -5.62847186875769
20000  ekin = 5.46074742513054 |  erot = 3.56463156086401 | epot = -14.6538508556013 | etot = -5.6284718696068
21000  ekin = 5.68087058007129 |  erot = 3.69256776681712 | epot = -15.001910217923 | etot = -5.62847187103459
22000  ekin = 5.88327619983869 |  erot = 3.81252322503553 | epot = -15.3242712967755 | etot = -5.62847187190124
23000  ekin = 6.06249979951978 |  erot = 3.91720950057666 | epot = -15.6081811728145 | etot = -5.62847187271811
24000  ekin = 6.21449712377422 |  erot = 4.00104081543175 | epot = -15.8440098121102 | etot = -5.62847187290425
25000  ekin = 6.33853277809236 |  erot = 4.06184542619875 | epot = -16.0288500769826 | etot = -5.62847187269149
26000  ekin = 6.43627737186991 |  erot = 4.10076278430838 | epot = -16.1655120283937 | etot = -5.62847187221538
27000  ekin = 6.51092447972005 |  erot = 4.12134483746805 | epot = -16.260741188824 | etot = -5.62847187163588
28000  ekin = 6.5662210097666 |  erot = 4.12827111510815 | epot = -16.3229639959505 | etot = -5.62847187107579
29000  ekin = 6.60587340002369 |  erot = 4.12622173833901 | epot = -16.360567008949 | etot = -5.62847187058633
30000  ekin = 6.63335580501804 |  erot = 4.11921545444657 | epot = -16.3810431296792 | etot = -5.62847187021463
31000  ekin = 6.65211888589246 |  erot = 4.10999678317539 | epot = -16.3905875389832 | etot = -5.62847186991535
32000  ekin = 6.66584763664849 |  erot = 4.10024297795112 | epot = -16.3945624842071 | etot = -5.62847186960754
33000  ekin = 6.67923227191006 |  erot = 4.0912920741338 | epot = -16.3989962152631 | etot = -5.62847186921923
34000  ekin = 6.6975613721681 |  erot = 4.0841476860768 | epot = -16.4101809271347 | etot = -5.62847186888976
35000  ekin = 6.72589628312061 |  erot = 4.07950228497964 | epot = -16.4338704366877 | etot = -5.62847186858749
36000  ekin = 6.76908557113695 |  erot = 4.07778615492126 | epot = -16.4753435944362 | etot = -5.62847186837801
37000  ekin = 6.83097506213385 |  erot = 4.0789901404068 | epot = -16.5384370708784 | etot = -5.62847186833773
38000  ekin = 6.91354703253154 |  erot = 4.08242106390431 | epot = -16.6244399649597 | etot = -5.62847186852385
39000  ekin = 7.01626065739816 |  erot = 4.08652171942798 | epot = -16.7312542457771 | etot = -5.62847186895099
40000  ekin = 7.13573792258312 |  erot = 4.08884404540016 | epot = -16.8530538375758 | etot = -5.62847186959251
41000  ekin = 7.26614194134498 |  erot = 4.08627042537777 | epot = -16.9808842370342 | etot = -5.62847187031141
42000  ekin = 7.40051154120571 |  erot = 4.07546023443111 | epot = -17.1044436466274 | etot = -5.6284718709906
43000  ekin = 7.53157437143673 |  erot = 4.05344655359649 | epot = -17.2134927965845 | etot = -5.62847187155129
44000  ekin = 7.65268317567631 |  erot = 4.01819177227242 | epot = -17.2993468198229 | etot = -5.62847187187421
45000  ekin = 7.75845343306877 |  erot = 3.96898510895781 | epot = -17.3559104142061 | etot = -5.62847187217949
46000  ekin = 7.84504377034634 |  erot = 3.90454903064801 | epot = -17.3780646733312 | etot = -5.62847187233689
47000  ekin = 7.91002390820628 |  erot = 3.82478596555203 | epot = -17.3632817459102 | etot = -5.62847187215191
48000  ekin = 7.95195705456509 |  erot = 3.73154439390011 | epot = -17.3119733204124 | etot = -5.62847187194721
49000  ekin = 7.97001825706877 |  erot = 3.62752007295051 | epot = -17.2260102016181 | etot = -5.62847187159886
50000  ekin = 7.96375756700446 |  erot = 3.51726958365113 | epot = -17.1094990215449 | etot = -5.62847187088935
51000  ekin = 7.93280761300463 |  erot = 3.40827188497842 | epot = -16.9695513688029 | etot = -5.62847187081988
52000  ekin = 7.87656811744222 |  erot = 3.30207418532543 | epot = -16.8071141735586 | etot = -5.62847187079096
53000  ekin = 7.79531012541943 |  erot = 3.19839984815422 | epot = -16.6221818441148 | etot = -5.6284718705412
54000  ekin = 7.68952609570376 |  erot = 3.09980185481832 | epot = -16.4177998208247 | etot = -5.62847187030266
55000  ekin = 7.55966222141143 |  erot = 3.00897426989548 | epot = -16.1971083614503 | etot = -5.62847187014338
56000  ekin = 7.40594124508052 |  erot = 2.92802865182274 | epot = -15.9624417669778 | etot = -5.62847187007454
57000  ekin = 7.22816598142045 |  erot = 2.85836584281809 | epot = -15.7150036943487 | etot = -5.62847187011015
58000  ekin = 7.02573051397664 |  erot = 2.80066522322052 | epot = -15.4548676074202 | etot = -5.62847187022304
59000  ekin = 6.80455077165178 |  erot = 2.75651944712046 | epot = -15.1895420860974 | etot = -5.62847186732512
60000  ekin = 6.57760251691569 |  erot = 2.72731501678746 | epot = -14.9333893991701 | etot = -5.62847186546694
61000  ekin = 5.99884053190248 |  erot = 2.65010269791739 | epot = -14.277415033118 | etot = -5.62847180329815
62000  ekin = 5.82217958652053 |  erot = 2.6505847819515 | epot = -14.1012361774591 | etot = -5.62847180898709
63000  ekin = 6.00993174210239 |  erot = 2.71143483466412 | epot = -14.3498384845188 | etot = -5.62847190775233
64000  ekin = 5.85096985050354 |  erot = 2.71173917624717 | epot = -14.1911809366078 | etot = -5.6284719098571
65000  ekin = 5.6795980144272 |  erot = 2.70731630130145 | epot = -14.0153862253966 | etot = -5.62847190966793
66000  ekin = 5.49812382731689 |  erot = 2.69646895132485 | epot = -13.8230646880633 | etot = -5.62847190942151
67000  ekin = 5.31011188753131 |  erot = 2.67901331172375 | epot = -13.6175971082584 | etot = -5.62847190900331
68000  ekin = 5.11964229582573 |  erot = 2.65622197273387 | epot = -13.4043361770527 | etot = -5.6284719084931
69000  ekin = 4.93067975207839 |  erot = 2.63014135225676 | epot = -13.1892930124929 | etot = -5.62847190815771
70000  ekin = 4.74697386617473 |  erot = 2.60347312706286 | epot = -12.9789189008749 | etot = -5.62847190763736
71000  ekin = 4.57222133259558 |  erot = 2.5797158979891 | epot = -12.7804091377444 | etot = -5.62847190715973
72000  ekin = 4.40959648507775 |  erot = 2.56228295922472 | epot = -12.6003513510616 | etot = -5.62847190675914
73000  ekin = 4.26170009573899 |  erot = 2.55406076080093 | epot = -12.4442327629949 | etot = -5.628471906455
74000  ekin = 4.13052949790815 |  erot = 2.55713155841149 | epot = -12.3161329625867 | etot = -5.62847190626709
75000  ekin = 4.01588192828864 |  erot = 2.56608801434028 | epot = -12.2104419139896 | etot = -5.62847197136069
76000  ekin = 3.95904625854796 |  erot = 2.44184942385982 | epot = -12.0293675901716 | etot = -5.62847190776379
77000  ekin = 4.02755960266341 |  erot = 2.46007159499037 | epot = -12.1161031098041 | etot = -5.62847191215033
78000  ekin = 3.98785439943791 |  erot = 2.49596945534594 | epot = -12.1122957670968 | etot = -5.62847191231291
79000  ekin = 3.96575767721401 |  erot = 2.54200842335447 | epot = -12.1362380131156 | etot = -5.62847191254708
80000  ekin = 3.95961954869525 |  erot = 2.59604589435592 | epot = -12.1841373558852 | etot = -5.62847191283404
81000  ekin = 3.96734100032309 |  erot = 2.65577062232349 | epot = -12.2515835357819 | etot = -5.62847191313531
82000  ekin = 3.98651997822084 |  erot = 2.71892569307082 | epot = -12.3339175847231 | etot = -5.62847191343147
83000  ekin = 4.01459300302701 |  erot = 2.78352190390196 | epot = -12.4265868206361 | etot = -5.62847191370711
84000  ekin = 4.04956210608503 |  erot = 2.84796629664415 | epot = -12.5260003165345 | etot = -5.62847191380536
85000  ekin = 4.09049341026813 |  erot = 2.91104365381095 | epot = -12.6300089781181 | etot = -5.62847191403897
86000  ekin = 4.13484812559989 |  erot = 2.97201165419081 | epot = -12.7353316940204 | etot = -5.62847191422968
87000  ekin = 4.18003829184589 |  erot = 3.03078479878275 | epot = -12.8392950049953 | etot = -5.62847191436667
88000  ekin = 4.22360704724669 |  erot = 3.08796574000307 | epot = -12.9400447017001 | etot = -5.6284719144503
89000  ekin = 4.26326024607255 |  erot = 3.14481288279466 | epot = -13.0365450433357 | etot = -5.62847191446849
90000  ekin = 4.29588111790545 |  erot = 3.2034171377699 | epot = -13.1277701703297 | etot = -5.62847191465437
91000  ekin = 4.31697784577739 |  erot = 3.26736040230128 | epot = -13.2128101626453 | etot = -5.62847191456667
92000  ekin = 4.32507837347504 |  erot = 3.33931601944528 | epot = -13.2928663075898 | etot = -5.62847191466943
93000  ekin = 4.31872212432123 |  erot = 3.42036541916741 | epot = -13.3675594581774 | etot = -5.6284719146888
94000  ekin = 4.29660005793222 |  erot = 3.51205694754363 | epot = -13.4371289201536 | etot = -5.62847191467772
95000  ekin = 4.25789021838775 |  erot = 3.61606475666795 | epot = -13.5024268896665 | etot = -5.62847191461082
96000  ekin = 4.20253661926438 |  erot = 3.73412422729609 | epot = -13.5651327610308 | etot = -5.62847191447028
97000  ekin = 4.13146529059958 |  erot = 3.86803037439239 | epot = -13.6279675793413 | etot = -5.62847191434934
98000  ekin = 4.046690719753 |  erot = 4.01885670334665 | epot = -13.6940193371947 | etot = -5.62847191409504
99000  ekin = 3.95128630061849 |  erot = 4.18772840013392 | epot = -13.767486614562 | etot = -5.62847191380955
100000  ekin = 3.84921784883017 |  erot = 4.37558821791202 | epot = -13.8532779802868 | etot = -5.62847191354459
101000  ekin = 3.74501223923248 |  erot = 4.58258429231704 | epot = -13.9560684449139 | etot = -5.62847191336437
102000  ekin = 3.6433002487052 |  erot = 4.8076413411003 | epot = -14.0794135031366 | etot = -5.62847191333113
103000  ekin = 3.54831662006226 |  erot = 5.04811575607459 | epot = -14.2249042896168 | etot = -5.62847191347993
104000  ekin = 3.46349772064886 |  erot = 5.29960820358405 | epot = -14.391577838203 | etot = -5.62847191397014
105000  ekin = 3.39136254536221 |  erot = 5.55507704359945 | epot = -14.5749115034245 | etot = -5.62847191446284
106000  ekin = 3.33356403744364 |  erot = 5.8071875932489 | epot = -14.7692235454834 | etot = -5.62847191479091
107000  ekin = 3.29209861353659 |  erot = 6.04906687386704 | epot = -14.9696374027449 | etot = -5.62847191534124
108000  ekin = 3.26748487341072 |  erot = 6.27418243659658 | epot = -15.1701392258624 | etot = -5.62847191585511
109000  ekin = 3.25930506886575 |  erot = 6.47585417244266 | epot = -15.3636311580687 | etot = -5.62847191676026
110000  ekin = 3.26568272829078 |  erot = 6.64602097207865 | epot = -15.5401756176979 | etot = -5.62847191732852
111000  ekin = 3.28520059172606 |  erot = 6.77857539600259 | epot = -15.6922479055261 | etot = -5.6284719177974
112000  ekin = 3.31659315707427 |  erot = 6.86862760563878 | epot = -15.8136926809241 | etot = -5.62847191821108
113000  ekin = 3.35860144230931 |  erot = 6.91335224014742 | epot = -15.9004256006566 | etot = -5.62847191819982
114000  ekin = 3.41073468124681 |  erot = 6.9140661098112 | epot = -15.9532727088331 | etot = -5.6284719177751
115000  ekin = 3.47381531534287 |  erot = 6.8764306568632 | epot = -15.9787178894067 | etot = -5.62847191720066
116000  ekin = 3.54886437558785 |  erot = 6.80711139529048 | epot = -15.9844476879574 | etot = -5.62847191707909
117000  ekin = 3.63467409204962 |  erot = 6.71320827683536 | epot = -15.9763542854627 | etot = -5.62847191657777
118000  ekin = 3.72815555523575 |  erot = 6.60276001485541 | epot = -15.9593874864266 | etot = -5.62847191633547
119000  ekin = 3.82420980363936 |  erot = 6.48288858478262 | epot = -15.9355703049697 | etot = -5.62847191654767
120000  ekin = 3.91797748357233 |  erot = 6.35662792089853 | epot = -15.9030773212286 | etot = -5.62847191675773
121000  ekin = 4.00591742044046 |  erot = 6.22468993027079 | epot = -15.8590792676439 | etot = -5.62847191693264
122000  ekin = 4.08550270322377 |  erot = 6.08676575288903 | epot = -15.800740373638 | etot = -5.62847191752524
123000  ekin = 4.15433540908383 |  erot = 5.9407157229037 | epot = -15.7235230494657 | etot = -5.6284719174782
124000  ekin = 4.21272085203609 |  erot = 5.78590733869471 | epot = -15.6271001078565 | etot = -5.62847191712566
125000  ekin = 4.26325970413191 |  erot = 5.62467373686617 | epot = -15.5164053575247 | etot = -5.62847191652665
126000  ekin = 4.30880597980502 |  erot = 5.4611329046716 | epot = -15.3984108007465 | etot = -5.62847191626985
127000  ekin = 4.35136313111002 |  erot = 5.299603073714 | epot = -15.2794381205825 | etot = -5.62847191575843
128000  ekin = 4.39391383900461 |  erot = 5.14386269106702 | epot = -15.1662484454481 | etot = -5.62847191537644
129000  ekin = 4.43858036063594 |  erot = 4.99693296064749 | epot = -15.0639852363968 | etot = -5.62847191511341
130000  ekin = 4.48619887382454 |  erot = 4.86092637377931 | epot = -14.9755971627247 | etot = -5.62847191512089
131000  ekin = 4.53629967746019 |  erot = 4.73552279955487 | epot = -14.9002943921703 | etot = -5.62847191515524
132000  ekin = 4.58794392436654 |  erot = 4.62012473201892 | epot = -14.8365405715609 | etot = -5.62847191517544
133000  ekin = 4.63977927970756 |  erot = 4.51475331813965 | epot = -14.7830045130162 | etot = -5.62847191516902
134000  ekin = 4.69096227444523 |  erot = 4.41936571520121 | epot = -14.738799904782 | etot = -5.62847191513552
135000  ekin = 4.74083332631942 |  erot = 4.33399770983651 | epot = -14.7033029512375 | etot = -5.62847191508156
136000  ekin = 4.78901374177274 |  erot = 4.25873574864833 | epot = -14.676221405433 | etot = -5.62847191501189
137000  ekin = 4.83519033966141 |  erot = 4.1934558470934 | epot = -14.6571181018638 | etot = -5.62847191510902
138000  ekin = 4.87857190019117 |  erot = 4.13759960010542 | epot = -14.6446434153649 | etot = -5.62847191506832
139000  ekin = 4.91933904268496 |  erot = 4.09041841408216 | epot = -14.6382293717808 | etot = -5.62847191501364
140000  ekin = 4.95802132610571 |  erot = 4.05108530565848 | epot = -14.6375785467331 | etot = -5.62847191496891
141000  ekin = 4.9951992325521 |  erot = 4.01864210163716 | epot = -14.6423132491267 | etot = -5.62847191493747
142000  ekin = 5.03134031865254 |  erot = 3.9921096007255 | epot = -14.6519218343066 | etot = -5.62847191492857
143000  ekin = 5.06663282814484 |  erot = 3.97056100872341 | epot = -14.6656657518149 | etot = -5.62847191494663
144000  ekin = 5.10088003253857 |  erot = 3.95318385936746 | epot = -14.6825358068967 | etot = -5.62847191499071
145000  ekin = 5.13347728619313 |  erot = 3.93933318432745 | epot = -14.7012823855756 | etot = -5.62847191505501
146000  ekin = 5.16346418936945 |  erot = 3.92856945833656 | epot = -14.720505562837 | etot = -5.628471915131
147000  ekin = 5.18962884502034 |  erot = 3.92067778970181 | epot = -14.7387785499319 | etot = -5.62847191520971
148000  ekin = 5.21063630104971 |  erot = 3.91566839447846 | epot = -14.7547766108109 | etot = -5.62847191528273
149000  ekin = 5.22515818277254 |  erot = 3.91376203384986 | epot = -14.7673921319655 | etot = -5.62847191534314
150000  ekin = 5.23199081771398 |  erot = 3.91536756918881 | epot = -14.7758303022876 | etot = -5.6284719153848
151000  ekin = 5.23025857434867 |  erot = 3.92102977399553 | epot = -14.7797602637298 | etot = -5.62847191538557
152000  ekin = 5.21970456277621 |  erot = 3.93136599417283 | epot = -14.7795424723191 | etot = -5.62847191537011
153000  ekin = 5.20020715643952 |  erot = 3.94729684642955 | epot = -14.7759759181576 | etot = -5.62847191528851
154000  ekin = 5.17219962280927 |  erot = 3.96989664945345 | epot = -14.7705681875102 | etot = -5.62847191524746
155000  ekin = 5.13597939415246 |  erot = 4.00025654377792 | epot = -14.764707853083 | etot = -5.62847191515258
156000  ekin = 5.09227456538864 |  erot = 4.03969792967758 | epot = -14.7604444100928 | etot = -5.6284719150266
157000  ekin = 5.04214374655893 |  erot = 4.08965648366255 | epot = -14.7602721451218 | etot = -5.62847191490035
158000  ekin = 4.98664076893808 |  erot = 4.15175637520501 | epot = -14.7668690589138 | etot = -5.6284719147707
159000  ekin = 4.92656708226474 |  erot = 4.22693785976572 | epot = -14.7819768568016 | etot = -5.62847191477114
160000  ekin = 4.86235166665096 |  erot = 4.31524574981629 | epot = -14.8060693313531 | etot = -5.62847191488588
161000  ekin = 4.79340744408529 |  erot = 4.41634192155575 | epot = -14.838221280638 | etot = -5.62847191499691
162000  ekin = 4.71931679137306 |  erot = 4.52911647420191 | epot = -14.8769051807431 | etot = -5.62847191516815
163000  ekin = 4.6396517883802 |  erot = 4.65170333188623 | epot = -14.9198270356121 | etot = -5.62847191534563
164000  ekin = 4.55406399624405 |  erot = 4.78166301740241 | epot = -14.9641989292969 | etot = -5.62847191565049
165000  ekin = 4.46213996067505 |  erot = 4.91530272158808 | epot = -15.005914598205 | etot = -5.62847191594189
166000  ekin = 4.36388109534888 |  erot = 5.048053575485 | epot = -15.0404065870406 | etot = -5.62847191620676
167000  ekin = 4.25995046842418 |  erot = 5.17511068522173 | epot = -15.063533070069 | etot = -5.6284719164231
168000  ekin = 4.15154354282069 |  erot = 5.29182746831815 | epot = -15.0718429277112 | etot = -5.62847191657239
169000  ekin = 4.04026084727392 |  erot = 5.39411747727997 | epot = -15.0628502412087 | etot = -5.6284719166548
170000  ekin = 3.92797723838207 |  erot = 5.47890367159809 | epot = -15.0353528265923 | etot = -5.62847191661213
171000  ekin = 3.81680551395668 |  erot = 5.54460219961037 | epot = -14.989879630017 | etot = -5.62847191644993
172000  ekin = 3.70912194360704 |  erot = 5.59119877272584 | epot = -14.9287926324926 | etot = -5.62847191615971
173000  ekin = 3.60767008609796 |  erot = 5.62020496675905 | epot = -14.8563469686135 | etot = -5.62847191575652
174000  ekin = 3.51593123142499 |  erot = 5.63484613587986 | epot = -14.7792492818532 | etot = -5.62847191454835
175000  ekin = 3.43946966413684 |  erot = 5.64148825119011 | epot = -14.7094298295789 | etot = -5.62847191425198
176000  ekin = 3.38149964339838 |  erot = 5.64304584979533 | epot = -14.6530174072199 | etot = -5.62847191402623
177000  ekin = 3.34426304280164 |  erot = 5.64075589500492 | epot = -14.6134908517374 | etot = -5.62847191393088
178000  ekin = 3.32907821317987 |  erot = 5.63429171925299 | epot = -14.5918418466193 | etot = -5.62847191418644
179000  ekin = 3.33553286829234 |  erot = 5.62088708741491 | epot = -14.5848918700465 | etot = -5.62847191433921
180000  ekin = 3.3633338427716 |  erot = 5.59827011329197 | epot = -14.5900758706823 | etot = -5.62847191461869
181000  ekin = 3.41118322744633 |  erot = 5.56369949232861 | epot = -14.6033546347479 | etot = -5.62847191497299
182000  ekin = 3.4766665781389 |  erot = 5.51442909119407 | epot = -14.6195675846753 | etot = -5.62847191534236
183000  ekin = 3.55646627297109 |  erot = 5.44847615754777 | epot = -14.6334143461259 | etot = -5.62847191560702
184000  ekin = 3.64671110623907 |  erot = 5.36528131962524 | epot = -14.6404643416907 | etot = -5.62847191582641
185000  ekin = 3.74294243854266 |  erot = 5.26596644090137 | epot = -14.6373807953581 | etot = -5.62847191591402
186000  ekin = 3.84064021177446 |  erot = 5.15359326678934 | epot = -14.6227053944206 | etot = -5.62847191585684
187000  ekin = 3.93563840595042 |  erot = 5.03296537332428 | epot = -14.5970756949488 | etot = -5.62847191567409
188000  ekin = 4.02444308409326 |  erot = 4.91004205202595 | epot = -14.562957051541 | etot = -5.62847191542175
189000  ekin = 4.10437481570333 |  erot = 4.79101157925955 | epot = -14.5238583101458 | etot = -5.62847191518292
190000  ekin = 4.17348832620009 |  erot = 4.68117061833048 | epot = -14.4831308595843 | etot = -5.62847191505376
191000  ekin = 4.23028845394456 |  erot = 4.58386192798818 | epot = -14.4426222970235 | etot = -5.62847191509075
192000  ekin = 4.27358054060666 |  erot = 4.49984530057557 | epot = -14.4018977564803 | etot = -5.62847191529807
193000  ekin = 4.24592911993701 |  erot = 4.46741799187833 | epot = -14.3418190226921 | etot = -5.62847191087673
194000  ekin = 4.19994174150866 |  erot = 4.47173701960859 | epot = -14.3001506793687 | etot = -5.62847191825144
195000  ekin = 4.19981139522172 |  erot = 4.40365513590489 | epot = -14.2319384423504 | etot = -5.62847191122382
196000  ekin = 4.18831859749945 |  erot = 4.32821378408696 | epot = -14.1450042928966 | etot = -5.62847191131016
197000  ekin = 4.16445522600496 |  erot = 4.24686919663529 | epot = -14.0397963337841 | etot = -5.62847191114385
198000  ekin = 4.13074920372966 |  erot = 4.15919636754725 | epot = -13.9184174820254 | etot = -5.62847191074844
199000  ekin = 4.09062074736207 |  erot = 4.06700829109981 | epot = -13.7861009486927 | etot = -5.62847191023085
200000  ekin = 4.04792338687245 |  erot = 3.9735654944549 | epot = -13.6499607909717 | etot = -5.62847190964433
201000  ekin = 4.00668244919823 |  erot = 3.88277215509115 | epot = -13.5179265133921 | etot = -5.62847190910273
202000  ekin = 3.97063392471776 |  erot = 3.79828207702216 | epot = -13.3973879104119 | etot = -5.62847190867202
203000  ekin = 3.94283665189429 |  erot = 3.72290259923877 | epot = -13.2942111595194 | etot = -5.62847190838634
204000  ekin = 3.92540743372199 |  erot = 3.65835216262459 | epot = -13.2122315045972 | etot = -5.62847190825061
205000  ekin = 3.9194643217734 |  erot = 3.60562062220977 | epot = -13.1535568521724 | etot = -5.62847190818919
206000  ekin = 3.92515912499457 |  erot = 3.56510062726613 | epot = -13.1187316605157 | etot = -5.628471908255
207000  ekin = 3.94166066189596 |  erot = 3.53643554885085 | epot = -13.1065681191283 | etot = -5.62847190838153
208000  ekin = 3.96741904659644 |  erot = 3.51909285318954 | epot = -13.1149838083219 | etot = -5.62847190853587
209000  ekin = 3.99456273872731 |  erot = 3.50083315850584 | epot = -13.1238678065932 | etot = -5.62847190936002
210000  ekin = 4.04796401860107 |  erot = 3.49168954890814 | epot = -13.1681254815356 | etot = -5.62847191402635
211000  ekin = 4.0977334271604 |  erot = 3.49304812012889 | epot = -13.2192534546351 | etot = -5.62847190734582
212000  ekin = 4.142055969744 |  erot = 3.50221111647819 | epot = -13.2727389936888 | etot = -5.62847190746664
213000  ekin = 4.18461227969277 |  erot = 3.51992604962371 | epot = -13.3330102373231 | etot = -5.62847190800662
214000  ekin = 4.22291801221044 |  erot = 3.54318058637897 | epot = -13.3945705067389 | etot = -5.62847190814948
215000  ekin = 4.2563906994408 |  erot = 3.57018634832863 | epot = -13.4550489560058 | etot = -5.6284719082364
216000  ekin = 4.28517056130805 |  erot = 3.59920416165287 | epot = -13.5128466312793 | etot = -5.62847190831837
217000  ekin = 4.30951457891382 |  erot = 3.62862634730453 | epot = -13.5666128346071 | etot = -5.62847190838878
218000  ekin = 4.33022749097614 |  erot = 3.65639118247487 | epot = -13.6150905819302 | etot = -5.6284719084792
219000  ekin = 4.34822739188835 |  erot = 3.68015661121629 | epot = -13.6568559116879 | etot = -5.62847190858329
220000  ekin = 4.36437280258429 |  erot = 3.69755509928594 | epot = -13.6903998105158 | etot = -5.62847190864553
221000  ekin = 4.37954317243517 |  erot = 3.7066097682438 | epot = -13.7146248493711 | etot = -5.62847190869218
222000  ekin = 4.39451292717191 |  erot = 3.70596363375448 | epot = -13.7289484695955 | etot = -5.62847190866908
223000  ekin = 4.41008213189098 |  erot = 3.69513355487516 | epot = -13.7336875953405 | etot = -5.6284719085744
224000  ekin = 4.4267894372635 |  erot = 3.67466536393603 | epot = -13.72992670974 | etot = -5.62847190854049
225000  ekin = 4.44460701701085 |  erot = 3.64600909388062 | epot = -13.7190880192612 | etot = -5.62847190836978
226000  ekin = 4.47380092381605 |  erot = 3.5883081409965 | epot = -13.6905809780433 | etot = -5.62847191323076
227000  ekin = 4.56056009802151 |  erot = 3.47269306833071 | epot = -13.6617250773507 | etot = -5.62847191099849
228000  ekin = 4.61083327531413 |  erot = 3.40803816011119 | epot = -13.6473433475497 | etot = -5.62847191212435
229000  ekin = 4.63150013168313 |  erot = 3.35898149000589 | epot = -13.6189535337067 | etot = -5.62847191201764
230000  ekin = 4.65431068144343 |  erot = 3.31343017818288 | epot = -13.5962127716282 | etot = -5.62847191200191
231000  ekin = 4.67934821405134 |  erot = 3.27332737526955 | epot = -13.5811475014875 | etot = -5.6284719121666
232000  ekin = 4.70592354946582 |  erot = 3.2394450666732 | epot = -13.5738405284618 | etot = -5.62847191232274
233000  ekin = 4.73271416122787 |  erot = 3.21144788525568 | epot = -13.5726339590435 | etot = -5.62847191255998
234000  ekin = 4.75943444985274 |  erot = 3.1907872923334 | epot = -13.5786936545789 | etot = -5.62847191239273
235000  ekin = 4.78642241818305 |  erot = 3.18021193976523 | epot = -13.5951062703953 | etot = -5.62847191244702
236000  ekin = 4.81315037988425 |  erot = 3.18017325334635 | epot = -13.6217955456981 | etot = -5.62847191246747
237000  ekin = 4.83923297185749 |  erot = 3.19145400453157 | epot = -13.6591588888811 | etot = -5.62847191249199
238000  ekin = 4.86487585931988 |  erot = 3.21481908800067 | epot = -13.7081668597352 | etot = -5.62847191241466
239000  ekin = 4.89063931715111 |  erot = 3.25114955281784 | epot = -13.7702607826836 | etot = -5.62847191271465
240000  ekin = 4.91656145052705 |  erot = 3.29901781218635 | epot = -13.844051175491 | etot = -5.62847191277759
241000  ekin = 4.94245255089498 |  erot = 3.3569969838132 | epot = -13.9279214477119 | etot = -5.6284719130037
242000  ekin = 4.96767380346275 |  erot = 3.42365009425735 | epot = -14.0197958109211 | etot = -5.62847191320097
243000  ekin = 5.00573446222713 |  erot = 3.47030260472676 | epot = -14.1045089792143 | etot = -5.62847191226038
244000  ekin = 5.06987350319093 |  erot = 3.50985787353283 | epot = -14.2082032932919 | etot = -5.62847191656817
245000  ekin = 5.08405115957761 |  erot = 3.57323736718673 | epot = -14.2857604930738 | etot = -5.62847196630943
246000  ekin = 5.13867281569013 |  erot = 3.5302241078677 | epot = -14.2973688418982 | etot = -5.62847191834041
247000  ekin = 5.24446071734935 |  erot = 3.63707192639631 | epot = -14.5100045566486 | etot = -5.6284719129029
248000  ekin = 5.23528120841841 |  erot = 3.74023330973924 | epot = -14.6039864311667 | etot = -5.628471913009
249000  ekin = 5.21260078435262 |  erot = 3.83729795660082 | epot = -14.6783706538259 | etot = -5.62847191287244
250000  ekin = 5.17839081250395 |  erot = 3.92749000333692 | epot = -14.7343527284479 | etot = -5.62847191260707
251000  ekin = 5.1358603633404 |  erot = 4.01108345357511 | epot = -14.7754157290665 | etot = -5.62847191215096
252000  ekin = 5.08918292106525 |  erot = 4.09018694184386 | epot = -14.8078417745594 | etot = -5.62847191165033
253000  ekin = 5.04264218495498 |  erot = 4.16759058211795 | epot = -14.8387046782812 | etot = -5.62847191120826
254000  ekin = 4.99116344078685 |  erot = 4.24248912287677 | epot = -14.8621245493471 | etot = -5.62847198568351
255000  ekin = 4.72637462799009 |  erot = 4.24407837663826 | epot = -14.598924932595 | etot = -5.62847192796666
256000  ekin = 4.59834109998083 |  erot = 4.36369782210539 | epot = -14.5905108364943 | etot = -5.62847191440804
257000  ekin = 4.77089539878448 |  erot = 4.60066315314103 | epot = -15.0000305289862 | etot = -5.62847197706074
258000  ekin = 4.85704242990589 |  erot = 4.66807324376019 | epot = -15.1535875814192 | etot = -5.62847190775314
259000  ekin = 4.89901811471865 |  erot = 4.72718635921535 | epot = -15.2546763808578 | etot = -5.62847190692384
260000  ekin = 4.9410709473888 |  erot = 4.7940686368644 | epot = -15.3636114914123 | etot = -5.62847190715913
261000  ekin = 4.98242309074418 |  erot = 4.86508628581829 | epot = -15.4759812846227 | etot = -5.6284719080602
262000  ekin = 5.01659840998003 |  erot = 4.93871137848552 | epot = -15.5837816973663 | etot = -5.62847190890074
263000  ekin = 5.03982661193948 |  erot = 5.00983839412577 | epot = -15.6781369155727 | etot = -5.62847190950745
264000  ekin = 5.04732696349291 |  erot = 5.07389667599529 | epot = -15.7496955495944 | etot = -5.62847191010617
265000  ekin = 5.03448807084496 |  erot = 5.12688367713938 | epot = -15.7898436586226 | etot = -5.62847191063822
266000  ekin = 4.99773438959012 |  erot = 5.16480683532439 | epot = -15.7910131359637 | etot = -5.62847191104918
267000  ekin = 4.93508497405636 |  erot = 5.18388050750906 | epot = -15.7474373928681 | etot = -5.62847191130266
268000  ekin = 4.84654531470251 |  erot = 5.18063468559614 | epot = -15.6556519116823 | etot = -5.62847191138365
269000  ekin = 4.7342321427402 |  erot = 5.15198859732537 | epot = -15.5146926513555 | etot = -5.62847191128996
270000  ekin = 4.60224202247896 |  erot = 5.09540688817557 | epot = -15.3261208188923 | etot = -5.62847190823777
271000  ekin = 4.45636876654291 |  erot = 5.00923317388767 | epot = -15.0940738481972 | etot = -5.62847190776665
272000  ekin = 4.30375505734827 |  erot = 4.89315778304718 | epot = -14.825384747492 | etot = -5.62847190709658
273000  ekin = 4.15244061479287 |  erot = 4.74862648123737 | epot = -14.5295390022914 | etot = -5.62847190626112
274000  ekin = 4.0113748233385 |  erot = 4.57896672456749 | epot = -14.2188134532197 | etot = -5.62847190531366
275000  ekin = 3.87388872892016 |  erot = 4.38950805795368 | epot = -13.8918687169869 | etot = -5.62847193011306
276000  ekin = 3.70828148349804 |  erot = 4.18975567950243 | epot = -13.5265090654649 | etot = -5.62847190246447
277000  ekin = 3.74025187939821 |  erot = 3.98894405210637 | epot = -13.357667864563 | etot = -5.62847193305841
278000  ekin = 3.74221760775068 |  erot = 3.77038543691985 | epot = -13.1410749479114 | etot = -5.62847190324089
279000  ekin = 3.75220115766438 |  erot = 3.55790331814754 | epot = -12.9385763794537 | etot = -5.62847190364179
280000  ekin = 3.77561814014276 |  erot = 3.3578165449261 | epot = -12.7619065883774 | etot = -5.62847190330859
281000  ekin = 3.81272927484558 |  erot = 3.17409695196347 | epot = -12.6152981298158 | etot = -5.62847190300677
282000  ekin = 3.86501988036633 |  erot = 3.0095264015503 | epot = -12.5030181842046 | etot = -5.62847190228801
283000  ekin = 3.93628900406832 |  erot = 2.86613168181915 | epot = -12.4308925881243 | etot = -5.62847190223687
284000  ekin = 4.0270270305029 |  erot = 2.74480306500077 | epot = -12.4003019979013 | etot = -5.62847190239759
285000  ekin = 4.14139706639974 |  erot = 2.64599110157835 | epot = -12.4158600691655 | etot = -5.62847190118742
286000  ekin = 4.28525774918094 |  erot = 2.56950762489173 | epot = -12.4832372763204 | etot = -5.62847190224768
287000  ekin = 4.44987555795429 |  erot = 2.51493810068274 | epot = -12.5932855609554 | etot = -5.62847190231832
288000  ekin = 4.6352092226464 |  erot = 2.48100112555614 | epot = -12.7446822515459 | etot = -5.62847190334331
289000  ekin = 4.83125797005422 |  erot = 2.4652724153959 | epot = -12.925002289686 | etot = -5.6284719042359
290000  ekin = 5.02763799219282 |  erot = 2.4654243568194 | epot = -13.1215342540988 | etot = -5.62847190508653
291000  ekin = 5.21465468575613 |  erot = 2.4791352414468 | epot = -13.322261832968 | etot = -5.62847190576503
292000  ekin = 5.38472348789938 |  erot = 2.50416430329196 | epot = -13.5173596974305 | etot = -5.6284719062392
293000  ekin = 5.533024870626 |  erot = 2.53823701976505 | epot = -13.6997337969534 | etot = -5.6284719065624
294000  ekin = 5.65718701899128 |  erot = 2.57877496353174 | epot = -13.8644338893347 | etot = -5.62847190681166
295000  ekin = 5.7565278049626 |  erot = 2.62269919784243 | epot = -14.0076989098348 | etot = -5.62847190702978
296000  ekin = 5.83139499491063 |  erot = 2.66652171229104 | epot = -14.1263886144102 | etot = -5.62847190720854
297000  ekin = 5.88282356331777 |  erot = 2.70675614330182 | epot = -14.2180516139307 | etot = -5.62847190731113
298000  ekin = 5.91239748764805 |  erot = 2.74048494300795 | epot = -14.2813543379657 | etot = -5.62847190730973
299000  ekin = 5.92208198046092 |  erot = 2.76585299302054 | epot = -14.3164068806877 | etot = -5.62847190720622
300000  ekin = 5.91390942018457 |  erot = 2.78233336188527 | epot = -14.3247146890959 | etot = -5.62847190702601
301000  ekin = 5.88962133511014 |  erot = 2.79074353675807 | epot = -14.3088367786632 | etot = -5.62847190679503
302000  ekin = 5.85048781420757 |  erot = 2.79307875791608 | epot = -14.2720384786471 | etot = -5.62847190652349
303000  ekin = 5.79743517876862 |  erot = 2.79223225552497 | epot = -14.2181393405041 | etot = -5.62847190621055
304000  ekin = 5.73124340760426 |  erot = 2.79262915089253 | epot = -14.152344464161 | etot = -5.62847190566422
305000  ekin = 5.65258268469694 |  erot = 2.79940899091188 | epot = -14.0804635809909 | etot = -5.62847190538211
306000  ekin = 5.56254653522906 |  erot = 2.81503734235271 | epot = -14.0060557827406 | etot = -5.62847190515888
307000  ekin = 5.46251129680527 |  erot = 2.84075892386265 | epot = -13.9317421257026 | etot = -5.6284719050347
308000  ekin = 5.35391293499571 |  erot = 2.87633235164348 | epot = -13.8587171916721 | etot = -5.62847190503293
309000  ekin = 5.23805007411239 |  erot = 2.91996940723433 | epot = -13.786491386383 | etot = -5.62847190503626
310000  ekin = 5.11613875821976 |  erot = 2.9688048296013 | epot = -13.7134154931077 | etot = -5.62847190528663
311000  ekin = 4.98925852658732 |  erot = 3.0183976977579 | epot = -13.6361281298135 | etot = -5.6284719054683
312000  ekin = 4.85867326621584 |  erot = 3.06421411593492 | epot = -13.5513592877733 | etot = -5.62847190562254
313000  ekin = 4.72585112666597 |  erot = 3.1023659032994 | epot = -13.4566889356296 | etot = -5.62847190566422
314000  ekin = 4.592934210454 |  erot = 3.13002199529028 | epot = -13.3514281113016 | etot = -5.62847190555731
315000  ekin = 4.46270669970612 |  erot = 3.14588950387572 | epot = -13.2370681088999 | etot = -5.62847190531805
316000  ekin = 4.33845457033106 |  erot = 3.15016989318202 | epot = -13.1170963684987 | etot = -5.62847190498561
317000  ekin = 4.22370149066026 |  erot = 3.1442940298723 | epot = -12.9964674251398 | etot = -5.62847190460729
318000  ekin = 4.12188681799348 |  erot = 3.13056754978183 | epot = -12.8809262720015 | etot = -5.62847190422623
319000  ekin = 4.03607214170355 |  erot = 3.11184182787142 | epot = -12.7763858734462 | etot = -5.62847190387125
320000  ekin = 3.96873641007167 |  erot = 3.0912804861174 | epot = -12.6884887997424 | etot = -5.62847190355338
321000  ekin = 3.92167797367532 |  erot = 3.07226107993801 | epot = -12.6224109568846 | etot = -5.62847190327131
322000  ekin = 3.89600971420598 |  erot = 3.05833648373991 | epot = -12.5828181009743 | etot = -5.62847190302842
323000  ekin = 3.89216326549819 |  erot = 3.05323078719375 | epot = -12.5738659555291 | etot = -5.6284719028372
324000  ekin = 3.90971752718534 |  erot = 3.06065920136105 | epot = -12.5988486315463 | etot = -5.62847190299995
325000  ekin = 3.94474197764983 |  erot = 3.08325557840727 | epot = -12.6564694593064 | etot = -5.62847190324926
326000  ekin = 3.99225791209533 |  erot = 3.12131666193592 | epot = -12.7420464778037 | etot = -5.62847190377245
327000  ekin = 4.04715751816781 |  erot = 3.17277573870579 | epot = -12.8484051614481 | etot = -5.62847190457455
328000  ekin = 4.10306827947856 |  erot = 3.23289809098419 | epot = -12.9644382760647 | etot = -5.6284719056019
329000  ekin = 4.15294077795679 |  erot = 3.29460254683875 | epot = -13.0760152314705 | etot = -5.62847190667497
330000  ekin = 4.19046086377729 |  erot = 3.34957314356706 | epot = -13.1685059148476 | etot = -5.62847190750324
331000  ekin = 4.21187936704473 |  erot = 3.38989153264862 | epot = -13.2302428076624 | etot = -5.62847190796903
332000  ekin = 4.21589857653893 |  erot = 3.41075094374024 | epot = -13.2551214281352 | etot = -5.628471907856
333000  ekin = 4.20485266000856 |  erot = 3.41174399825001 | epot = -13.2450685654542 | etot = -5.6284719071956
334000  ekin = 4.18435368277117 |  erot = 3.39692225045222 | epot = -13.2097478393831 | etot = -5.62847190615973
335000  ekin = 4.16205455862422 |  erot = 3.37367623595626 | epot = -13.1642026995684 | etot = -5.62847190498797
336000  ekin = 4.1460949142135 |  erot = 3.35093309668039 | epot = -13.1254999147993 | etot = -5.62847190390539
337000  ekin = 4.14364358931716 |  erot = 3.33736964607492 | epot = -13.1094851384647 | etot = -5.62847190307258
338000  ekin = 4.15982493123068 |  erot = 3.33968220644332 | epot = -13.1279790404056 | etot = -5.62847190273159
339000  ekin = 4.19714166715497 |  erot = 3.36120406395815 | epot = -13.1868176337209 | etot = -5.62847190260775
340000  ekin = 4.25518474380359 |  erot = 3.40394456535466 | epot = -13.2876012119587 | etot = -5.62847190280044
341000  ekin = 4.33079125359132 |  erot = 3.46797257818885 | epot = -13.4272357350201 | etot = -5.62847190323997
342000  ekin = 4.41854745257278 |  erot = 3.55173943760232 | epot = -13.5987587940231 | etot = -5.62847190384801
343000  ekin = 4.51153864836865 |  erot = 3.65250494550737 | epot = -13.7925154984244 | etot = -5.62847190454843
344000  ekin = 4.60219231316187 |  erot = 3.7667191864783 | epot = -13.9973834048963 | etot = -5.62847190525613
345000  ekin = 4.68312343518298 |  erot = 3.89042211424238 | epot = -14.2020174553302 | etot = -5.6284719059048
346000  ekin = 4.74786790538213 |  erot = 4.01955036383334 | epot = -14.3958901756589 | etot = -5.62847190644344
347000  ekin = 4.79150376884804 |  erot = 4.15019529883503 | epot = -14.5701709744795 | etot = -5.62847190679641
348000  ekin = 4.81117855584341 |  erot = 4.27877359763572 | epot = -14.7184240605298 | etot = -5.62847190705067
349000  ekin = 4.80564918858344 |  erot = 4.4020566269151 | epot = -14.8361777226679 | etot = -5.62847190716934
350000  ekin = 4.77545945328367 |  erot = 4.51714564004599 | epot = -14.9210770005243 | etot = -5.62847190719463
351000  ekin = 4.72262273321632 |  erot = 4.62116010887961 | epot = -14.9722547493017 | etot = -5.62847190720574
352000  ekin = 4.65007958813937 |  erot = 4.71078593020808 | epot = -14.9893374256289 | etot = -5.62847190728148
353000  ekin = 4.561091574653 |  erot = 4.78180335584085 | epot = -14.9713668379582 | etot = -5.62847190746436
354000  ekin = 4.45876151246632 |  erot = 4.82895979647913 | epot = -14.9161932166701 | etot = -5.62847190772469
355000  ekin = 4.3458461294572 |  erot = 4.84663553109713 | epot = -14.8209535684805 | etot = -5.62847190792617
356000  ekin = 4.22495470321213 |  erot = 4.83038190910014 | epot = -14.6838085202032 | etot = -5.62847190789095
357000  ekin = 4.09903296595008 |  erot = 4.77873075095131 | epot = -14.5062356243853 | etot = -5.62847190748395
358000  ekin = 3.97178667556088 |  erot = 4.69444561051128 | epot = -14.2947041927829 | etot = -5.62847190671071
359000  ekin = 3.84767298929339 |  erot = 4.58431182215178 | epot = -14.0604567171992 | etot = -5.62847190575407
360000  ekin = 3.73136439808251 |  erot = 4.4574661315919 | epot = -13.817302434434 | etot = -5.62847190475963
361000  ekin = 3.62758093164766 |  erot = 4.32379064506731 | epot = -13.5798434807482 | etot = -5.62847190403321
362000  ekin = 3.54294892305658 |  erot = 4.19358097115649 | epot = -13.3650017978921 | etot = -5.62847190367907
363000  ekin = 3.47837311690145 |  erot = 4.07207692083192 | epot = -13.1789219412925 | etot = -5.62847190355913
364000  ekin = 3.43225009804692 |  erot = 3.96193194142367 | epot = -13.0226539430596 | etot = -5.62847190358901
365000  ekin = 3.40198388461975 |  erot = 3.86460642705684 | epot = -12.8950622153634 | etot = -5.62847190368686
366000  ekin = 3.38451833850803 |  erot = 3.78104622244786 | epot = -12.794036464739 | etot = -5.62847190378308
367000  ekin = 3.37682483156697 |  erot = 3.71218000857303 | epot = -12.7174767439831 | etot = -5.62847190384309
368000  ekin = 3.37625204137118 |  erot = 3.6591214782258 | epot = -12.6638454234516 | etot = -5.62847190385464
369000  ekin = 3.38074636725422 |  erot = 3.62312680344159 | epot = -12.6323450745227 | etot = -5.6284719038269
370000  ekin = 3.38894636697442 |  erot = 3.60538856636757 | epot = -12.6228068371633 | etot = -5.62847190382135
371000  ekin = 3.40011634058794 |  erot = 3.60672333637668 | epot = -12.6353115807129 | etot = -5.62847190374829
372000  ekin = 3.41430323561769 |  erot = 3.6274892022369 | epot = -12.6702643415543 | etot = -5.62847190369971
373000  ekin = 3.43217624794581 |  erot = 3.66740997408409 | epot = -12.7280581255743 | etot = -5.62847190354445
374000  ekin = 3.45538314685183 |  erot = 3.72532070766342 | epot = -12.8091757581443 | etot = -5.62847190362902
375000  ekin = 3.48458983102494 |  erot = 3.79950576966169 | epot = -12.912567504444 | etot = -5.62847190375734
376000  ekin = 3.51994630862591 |  erot = 3.88772077541555 | epot = -13.0361389879683 | etot = -5.62847190392689
377000  ekin = 3.5616226323853 |  erot = 3.98718032087107 | epot = -13.1772748573513 | etot = -5.62847190409496
378000  ekin = 3.61009229018292 |  erot = 4.09470007581821 | epot = -13.3332642703068 | etot = -5.62847190430571
379000  ekin = 3.66621939251358 |  erot = 4.20668278516541 | epot = -13.5013740821229 | etot = -5.62847190444393
380000  ekin = 3.73222313434323 |  erot = 4.3189302530614 | epot = -13.679625292285 | etot = -5.62847190488032
381000  ekin = 3.80656943722702 |  erot = 4.42661769095303 | epot = -13.8616590336322 | etot = -5.62847190545212
382000  ekin = 3.8859455852516 |  erot = 4.52459411506455 | epot = -14.0390116064011 | etot = -5.62847190608496
383000  ekin = 3.96695089998522 |  erot = 4.60747433895703 | epot = -14.2028971456679 | etot = -5.62847190672568
384000  ekin = 4.04619645066527 |  erot = 4.6696791525829 | epot = -14.3443475105463 | etot = -5.62847190729813
385000  ekin = 4.12092029136262 |  erot = 4.70599192063137 | epot = -14.4553841196651 | etot = -5.62847190767113
386000  ekin = 4.18945537161371 |  erot = 4.71237691681444 | epot = -14.5303041965357 | etot = -5.62847190810759
387000  ekin = 4.24770733743608 |  erot = 4.68531871644235 | epot = -14.5614979619342 | etot = -5.6284719080558
388000  ekin = 4.2940051823082 |  erot = 4.62433064765536 | epot = -14.5468077376759 | etot = -5.62847190771234
389000  ekin = 4.32973751033806 |  erot = 4.53230747815417 | epot = -14.4905168956582 | etot = -5.62847190716597
390000  ekin = 4.35696496431019 |  erot = 4.4143235691545 | epot = -14.399760440035 | etot = -5.62847190657029
391000  ekin = 4.37768888459301 |  erot = 4.2767275500093 | epot = -14.2828883405408 | etot = -5.62847190593854
392000  ekin = 4.39398588699255 |  erot = 4.12625191225131 | epot = -14.1487097046255 | etot = -5.62847190538163
393000  ekin = 4.40738241116819 |  erot = 3.96936593195606 | epot = -14.0052202479493 | etot = -5.62847190482501
394000  ekin = 4.41937568154396 |  erot = 3.81285278687253 | epot = -13.8607003730812 | etot = -5.62847190466466
395000  ekin = 4.42988768163561 |  erot = 3.6606594657579 | epot = -13.7190190519262 | etot = -5.62847190453271
396000  ekin = 4.43847476588818 |  erot = 3.51525603215344 | epot = -13.5822027024349 | etot = -5.62847190439326
397000  ekin = 4.44517728396986 |  erot = 3.37891512778005 | epot = -13.4525643159682 | etot = -5.6284719042183
398000  ekin = 4.45064950026198 |  erot = 3.25392386319268 | epot = -13.3330452674527 | etot = -5.62847190399801
399000  ekin = 4.45613851377743 |  erot = 3.14269651882354 | epot = -13.2273069364012 | etot = -5.62847190380028
400000  ekin = 4.46297608306138 |  erot = 3.04745583066331 | epot = -13.1389038172714 | etot = -5.62847190354672
401000  ekin = 4.47275546002036 |  erot = 2.97053701412508 | epot = -13.0717643775066 | etot = -5.62847190336114
402000  ekin = 4.48672336701133 |  erot = 2.91396522581984 | epot = -13.0291604961734 | etot = -5.62847190334224
403000  ekin = 4.50482841072145 |  erot = 2.87870251811734 | epot = -13.0120028324557 | etot = -5.62847190361695
404000  ekin = 4.52484325729844 |  erot = 2.86379686217092 | epot = -13.0171120237225 | etot = -5.62847190425319
405000  ekin = 4.54178669952219 |  erot = 2.86535120571622 | epot = -13.035609810717 | etot = -5.62847190547857
406000  ekin = 4.54812186975673 |  erot = 2.87565623456879 | epot = -13.0522500109239 | etot = -5.62847190659835
407000  ekin = 4.53567765660111 |  erot = 2.8878166633721 | epot = -13.0519662273967 | etot = -5.62847190742345
408000  ekin = 4.49806839869862 |  erot = 2.89717319278942 | epot = -13.0237134991393 | etot = -5.62847190765125
409000  ekin = 4.43289041822334 |  erot = 2.90293173433551 | epot = -12.9642940598363 | etot = -5.6284719072775
410000  ekin = 4.34222243508447 |  erot = 2.90784571767636 | epot = -12.8785400593084 | etot = -5.62847190654754
411000  ekin = 4.23122328978591 |  erot = 2.91632332334238 | epot = -12.7760185189251 | etot = -5.62847190579678
412000  ekin = 4.10591302465699 |  erot = 2.93234263229677 | epot = -12.6667275621908 | etot = -5.62847190523701
413000  ekin = 3.97147909132975 |  erot = 2.95826875341254 | epot = -12.5582197496498 | etot = -5.6284719049075
414000  ekin = 3.83169645325908 |  erot = 2.99487215443482 | epot = -12.4550405124386 | etot = -5.62847190474471
415000  ekin = 3.68915556883912 |  erot = 3.0419171615631 | epot = -12.3595446350691 | etot = -5.62847190466689
416000  ekin = 3.54575553255138 |  erot = 3.09878213615665 | epot = -12.2730095733217 | etot = -5.62847190461363
417000  ekin = 3.40315271144454 |  erot = 3.16484246793679 | epot = -12.196467083935 | etot = -5.62847190455362
418000  ekin = 3.26306253871869 |  erot = 3.23960054555667 | epot = -12.1311349887499 | etot = -5.62847190447455
419000  ekin = 3.12743539445009 |  erot = 3.32265867812492 | epot = -12.0785659769494 | etot = -5.62847190437438
420000  ekin = 2.99854685247322 |  erot = 3.41362396346156 | epot = -12.0406427201922 | etot = -5.62847190425745
421000  ekin = 2.87901712491781 |  erot = 3.51197880379299 | epot = -12.0194678328485 | etot = -5.62847190413768
422000  ekin = 2.77174596051942 |  erot = 3.61690112203041 | epot = -12.0171189865927 | etot = -5.62847190404289
423000  ekin = 2.67973794664656 |  erot = 3.72700827485455 | epot = -12.0352181255173 | etot = -5.62847190401614
424000  ekin = 2.60579870928953 |  erot = 3.84002717527165 | epot = -12.074297788675 | etot = -5.62847190411386
425000  ekin = 2.55208954528039 |  erot = 3.95244167891802 | epot = -12.1330031285985 | etot = -5.62847190440007
426000  ekin = 2.51954653045553 |  erot = 4.05920212805527 | epot = -12.2072205634419 | etot = -5.62847190493108
427000  ekin = 2.50725893891827 |  erot = 4.1536368182829 | epot = -12.2893676629173 | etot = -5.62847190571613
428000  ekin = 2.51210485176594 |  erot = 4.22782399612794 | epot = -12.3684007545446 | etot = -5.6284719066507
429000  ekin = 2.5291183323482 |  erot = 4.27377369071164 | epot = -12.4313639305414 | etot = -5.62847190748153
430000  ekin = 2.5528492670303 |  erot = 4.28551618825989 | epot = -12.4668373631802 | etot = -5.62847190788999
431000  ekin = 2.57924139422495 |  erot = 4.26142412036584 | epot = -12.4691374222748 | etot = -5.62847190768399
432000  ekin = 2.60692475469742 |  erot = 4.20541068246201 | epot = -12.4408073440975 | etot = -5.62847190693806
433000  ekin = 2.6371284298573 |  erot = 4.12604912501286 | epot = -12.391649460807 | etot = -5.6284719059368
434000  ekin = 2.67245542245049 |  erot = 4.03405948921175 | epot = -12.3349868166518 | etot = -5.62847190498956
435000  ekin = 2.71543854644134 |  erot = 3.93961255970366 | epot = -12.2835230104302 | etot = -5.62847190428521
436000  ekin = 2.76760991345415 |  erot = 3.85063248522443 | epot = -12.2467143025564 | etot = -5.6284719038778
437000  ekin = 2.8292051567542 |  erot = 3.77223859649275 | epot = -12.2299156569747 | etot = -5.62847190372774
438000  ekin = 2.89929820062403 |  erot = 3.70707509973604 | epot = -12.2348452041292 | etot = -5.62847190376909
439000  ekin = 2.97609334158665 |  erot = 3.65590372387229 | epot = -12.2604689694007 | etot = -5.62847190394175
440000  ekin = 3.05720906615822 |  erot = 3.61815200781834 | epot = -12.3038329781783 | etot = -5.62847190420176
441000  ekin = 3.13989672831462 |  erot = 3.59232302397545 | epot = -12.3606916568092 | etot = -5.62847190451914
442000  ekin = 3.22119927520855 |  erot = 3.57626892517897 | epot = -12.4259401052623 | etot = -5.62847190487476
443000  ekin = 3.29807867303873 |  erot = 3.56737972994041 | epot = -12.4939303082275 | etot = -5.62847190524833
444000  ekin = 3.36753883945501 |  erot = 3.5627634892569 | epot = -12.5587742343316 | etot = -5.6284719056197
445000  ekin = 3.4267604658233 |  erot = 3.55942025917632 | epot = -12.6146526309662 | etot = -5.62847190596662
446000  ekin = 3.47324383647929 |  erot = 3.55443462308159 | epot = -12.656150365831 | etot = -5.62847190627014
447000  ekin = 3.50497354377124 |  erot = 3.54511419619432 | epot = -12.6785596464733 | etot = -5.62847190650775
448000  ekin = 3.52056213083958 |  erot = 3.52974100710374 | epot = -12.6787750444648 | etot = -5.62847190652147
449000  ekin = 3.51939696591323 |  erot = 3.507059045117 | epot = -12.6549279176368 | etot = -5.62847190660658
450000  ekin = 3.50164536053693 |  erot = 3.47565071067072 | epot = -12.6057679778087 | etot = -5.62847190660109
451000  ekin = 3.46824790707669 |  erot = 3.4347215120395 | epot = -12.531441325619 | etot = -5.62847190650284
452000  ekin = 3.42090312736367 |  erot = 3.38414558730942 | epot = -12.4335206209864 | etot = -5.6284719063133
453000  ekin = 3.36201791827909 |  erot = 3.32449206047147 | epot = -12.3149818847882 | etot = -5.62847190603764
454000  ekin = 3.29463316059826 |  erot = 3.25701739820787 | epot = -12.1801224644917 | etot = -5.62847190568553
455000  ekin = 3.2223327489781 |  erot = 3.1836070327843 | epot = -12.0344116870331 | etot = -5.62847190527074
456000  ekin = 3.14914248627514 |  erot = 3.10666992199464 | epot = -11.884284313082 | etot = -5.62847190481224
457000  ekin = 3.07939737171639 |  erot = 3.02894564059643 | epot = -11.7368149166536 | etot = -5.62847190434078
458000  ekin = 3.01756413266478 |  erot = 2.95322108563372 | epot = -11.5992571221517 | etot = -5.62847190385321
459000  ekin = 2.96810632522044 |  erot = 2.88249754736637 | epot = -11.4790757759931 | etot = -5.62847190340633
460000  ekin = 2.93513889001179 |  erot = 2.81955267521028 | epot = -11.3831634682582 | etot = -5.62847190303614
461000  ekin = 2.92205746386696 |  erot = 2.76669234907753 | epot = -11.3172217157252 | etot = -5.62847190278075
462000  ekin = 2.93114290148748 |  erot = 2.72556812595278 | epot = -11.2851829301139 | etot = -5.62847190267363
463000  ekin = 2.96319319678835 |  erot = 2.69703193760629 | epot = -11.2886970371322 | etot = -5.62847190273756
464000  ekin = 3.01726238567719 |  erot = 2.68105615129163 | epot = -11.3267904399453 | etot = -5.62847190297647
465000  ekin = 3.09058398931472 |  erot = 2.67674994757838 | epot = -11.3958058402643 | etot = -5.6284719033712
466000  ekin = 3.17872270899905 |  erot = 2.6824886669891 | epot = -11.48968327987 | etot = -5.62847190388182
467000  ekin = 3.2759411449604 |  erot = 2.69614045584029 | epot = -11.6005535052567 | etot = -5.628471904456
468000  ekin = 3.37571282134012 |  erot = 2.71534026238547 | epot = -11.7195249887662 | etot = -5.62847190504062
469000  ekin = 3.47128178263151 |  erot = 2.73774679761584 | epot = -11.8375004858384 | etot = -5.62847190559107
470000  ekin = 3.55617737699579 |  erot = 2.7612362865982 | epot = -11.9458855696693 | etot = -5.62847190607528
471000  ekin = 3.62463309400251 |  erot = 2.78402790002466 | epot = -12.0371329004973 | etot = -5.62847190647018
472000  ekin = 3.67190559893071 |  erot = 2.80477124777461 | epot = -12.1051487534632 | etot = -5.62847190675791
473000  ekin = 3.69451868441608 |  erot = 2.82263116139928 | epot = -12.1456217527367 | etot = -5.62847190692135
474000  ekin = 3.6904574633211 |  erot = 2.83737882567794 | epot = -12.1563081959459 | etot = -5.62847190694689
475000  ekin = 3.65932116351493 |  erot = 2.84946541726356 | epot = -12.1372584876048 | etot = -5.62847190682627
476000  ekin = 3.60242486139442 |  erot = 2.860040164983 | epot = -12.0909369329385 | etot = -5.62847190656111
477000  ekin = 3.52282746240976 |  erot = 2.87088465735471 | epot = -12.0221840259275 | etot = -5.62847190616305
478000  ekin = 3.42525452631196 |  erot = 2.8842496727028 | epot = -11.937976104682 | etot = -5.62847190566723
479000  ekin = 3.31588349740578 |  erot = 2.90254646896534 | epot = -11.8469018714886 | etot = -5.62847190511746
480000  ekin = 3.20192949247724 |  erot = 2.92801081391277 | epot = -11.7584122109699 | etot = -5.6284719045799
481000  ekin = 3.09102106842966 |  erot = 2.96227510041211 | epot = -11.6817680729768 | etot = -5.62847190413507
482000  ekin = 2.99039932403956 |  erot = 3.00590839369639 | epot = -11.6247796216015 | etot = -5.62847190386559
483000  ekin = 2.90605693347784 |  erot = 3.05799802964626 | epot = -11.5925268669617 | etot = -5.62847190383758
484000  ekin = 2.84200171528246 |  erot = 3.11586840863817 | epot = -11.5863420280012 | etot = -5.62847190408058
485000  ekin = 2.81072036473327 |  erot = 3.03665546465345 | epot = -11.4758477219251 | etot = -5.6284718925384
486000  ekin = 2.99172671794075 |  erot = 2.89028588607825 | epot = -11.5104845147491 | etot = -5.62847191073009
487000  ekin = 3.04661020887266 |  erot = 2.89516257153864 | epot = -11.5702446860478 | etot = -5.62847190563655
488000  ekin = 3.02813445466331 |  erot = 2.91755814173837 | epot = -11.5741645019396 | etot = -5.62847190553791
489000  ekin = 3.0291817319412 |  erot = 2.94703274340609 | epot = -11.6046863809519 | etot = -5.62847190560459
490000  ekin = 3.0492092997966 |  erot = 2.98299921436645 | epot = -11.6606804199863 | etot = -5.62847190582323
491000  ekin = 3.08564623426476 |  erot = 3.02458607699346 | epot = -11.7387042173799 | etot = -5.62847190612173
492000  ekin = 3.13426650219074 |  erot = 3.07113014034675 | epot = -11.8338685489779 | etot = -5.62847190644042
493000  ekin = 3.19024782359959 |  erot = 3.12246736372458 | epot = -11.9411870939724 | etot = -5.62847190664825
494000  ekin = 3.24418110406507 |  erot = 3.1775709352253 | epot = -12.0502240478095 | etot = -5.62847200851915
495000  ekin = 3.12930691889256 |  erot = 3.12025770001182 | epot = -11.8780365337358 | etot = -5.62847191483139
496000  ekin = 3.38154400853281 |  erot = 3.12702216677526 | epot = -12.1370381395201 | etot = -5.62847196421204
497000  ekin = 3.53796334306466 |  erot = 3.21345240180709 | epot = -12.3798876661113 | etot = -5.62847192123953
498000  ekin = 3.54725242247065 |  erot = 3.31274815690868 | epot = -12.4884725006364 | etot = -5.62847192125712
499000  ekin = 3.5468675239464 |  erot = 3.42936350667607 | epot = -12.6047029519708 | etot = -5.62847192134834
500000  ekin = 3.53611629145838 |  erot = 3.56214471845096 | epot = -12.7267329314243 | etot = -5.62847192151496
501000  ekin = 3.51474019585514 |  erot = 3.70831240058721 | epot = -12.8515245182028 | etot = -5.62847192176042
502000  ekin = 3.48291543618367 |  erot = 3.86351597854213 | epot = -12.974903336719 | etot = -5.62847192199318
503000  ekin = 3.44167367985603 |  erot = 4.0220065719108 | epot = -13.0921521741169 | etot = -5.62847192235009
504000  ekin = 3.39166561939328 |  erot = 4.17733332038022 | epot = -13.1974708625166 | etot = -5.62847192274308
505000  ekin = 3.33344269452097 |  erot = 4.3226637012262 | epot = -13.2845783188814 | etot = -5.62847192313419
506000  ekin = 3.26726906280804 |  erot = 4.45157764158988 | epot = -13.3473186277995 | etot = -5.62847192340154
507000  ekin = 3.19388361650851 |  erot = 4.55898983224495 | epot = -13.3813453722408 | etot = -5.62847192348739
508000  ekin = 3.11462724050367 |  erot = 4.64207406467302 | epot = -13.3851732285133 | etot = -5.62847192333664
509000  ekin = 3.03154551891525 |  erot = 4.70083202639393 | epot = -13.3608494682671 | etot = -5.62847192295793
510000  ekin = 2.94513058613033 |  erot = 4.73730594218059 | epot = -13.3109084507993 | etot = -5.62847192248835
511000  ekin = 2.85640718495935 |  erot = 4.75516581379155 | epot = -13.2400449206745 | etot = -5.62847192192364
512000  ekin = 2.76854482526602 |  erot = 4.75962991520564 | epot = -13.1566466618386 | etot = -5.62847192136693
513000  ekin = 2.68465921484683 |  erot = 4.75599513192382 | epot = -13.0691262676713 | etot = -5.62847192090066
514000  ekin = 2.60745568315854 |  erot = 4.74870168658733 | epot = -12.9846292903311 | etot = -5.62847192058526
515000  ekin = 2.53899080265848 |  erot = 4.74082869238472 | epot = -12.9082914154511 | etot = -5.62847192040786
516000  ekin = 2.48057862898664 |  erot = 4.73416754063931 | epot = -12.8432180899849 | etot = -5.62847192035895
517000  ekin = 2.43281299022326 |  erot = 4.72933651074075 | epot = -12.7906214213695 | etot = -5.62847192040548
518000  ekin = 2.39567246202895 |  erot = 4.72611868197513 | epot = -12.7502630645114 | etot = -5.62847192050728
519000  ekin = 2.36868008079674 |  erot = 4.72386163462408 | epot = -12.7210136360438 | etot = -5.62847192062301
520000  ekin = 2.3510906803411 |  erot = 4.72186744282306 | epot = -12.7014300438815 | etot = -5.62847192071735
521000  ekin = 2.34207426126447 |  erot = 4.719702277068 | epot = -12.6902484591012 | etot = -5.62847192076877
522000  ekin = 2.34085858399111 |  erot = 4.71735113734754 | epot = -12.6866816421143 | etot = -5.6284719207757
523000  ekin = 2.34541603967617 |  erot = 4.6557167127166 | epot = -12.6296046828772 | etot = -5.62847193048445
524000  ekin = 2.39460269542894 |  erot = 4.54409239678927 | epot = -12.5671670124992 | etot = -5.62847192028103
525000  ekin = 2.5175556535139 |  erot = 4.49060445329658 | epot = -12.6366320325369 | etot = -5.62847192572644
526000  ekin = 2.63891940342301 |  erot = 4.49670026135012 | epot = -12.7640916025604 | etot = -5.62847193778728
527000  ekin = 2.68130557080854 |  erot = 4.50503337383926 | epot = -12.8148108747436 | etot = -5.62847193009577
528000  ekin = 2.71450795013141 |  erot = 4.51098798637389 | epot = -12.853967866701 | etot = -5.62847193019569
529000  ekin = 2.74727192396712 |  erot = 4.51402301150225 | epot = -12.8897668657352 | etot = -5.62847193026581
530000  ekin = 2.77952118316794 |  erot = 4.51256666259376 | epot = -12.9205597760537 | etot = -5.62847193029203
531000  ekin = 2.81130699781532 |  erot = 4.50555264772715 | epot = -12.9453315758132 | etot = -5.62847193027072
532000  ekin = 2.84274553229994 |  erot = 4.49253106985415 | epot = -12.9637485323648 | etot = -5.6284719302107
533000  ekin = 2.87393313771819 |  erot = 4.47361780237763 | epot = -12.9760228702276 | etot = -5.62847193013181
534000  ekin = 2.904869338094 |  erot = 4.44928844619516 | epot = -12.9826297143465 | etot = -5.62847193005739
535000  ekin = 2.9354151986655 |  erot = 4.42010482067472 | epot = -12.9839919493437 | etot = -5.62847193000343
536000  ekin = 2.96529830148456 |  erot = 4.38649798397249 | epot = -12.9802682154312 | etot = -5.62847192997417
537000  ekin = 2.99415467151161 |  erot = 4.34867665837444 | epot = -12.9713032598405 | etot = -5.62847192995448
538000  ekin = 3.02158801648973 |  erot = 4.30669342610349 | epot = -12.9567533725475 | etot = -5.62847192995426
539000  ekin = 3.04722844372592 |  erot = 4.26048951905387 | epot = -12.93618989273 | etot = -5.62847192995025
540000  ekin = 3.07077963642579 |  erot = 4.21000980478816 | epot = -12.9092613711472 | etot = -5.62847192993325
541000  ekin = 3.09204730615089 |  erot = 4.15535061585297 | epot = -12.8758698519023 | etot = -5.62847192989846
542000  ekin = 3.11094831331528 |  erot = 4.09682671837962 | epot = -12.8362469615404 | etot = -5.6284719298455
543000  ekin = 3.1275028488053 |  erot = 4.03499383129992 | epot = -12.7909686098824 | etot = -5.62847192977717
544000  ekin = 3.14181233915449 |  erot = 3.97062692619187 | epot = -12.7409111950486 | etot = -5.62847192970229
545000  ekin = 3.154023692754 |  erot = 3.90462208414991 | epot = -12.6871177065331 | etot = -5.62847192962916
546000  ekin = 3.16427777374346 |  erot = 3.83809465725385 | epot = -12.6308443605583 | etot = -5.62847192956095
547000  ekin = 3.1726324531189 |  erot = 3.77248542235214 | epot = -12.5735898050048 | etot = -5.62847192953373
548000  ekin = 3.17905114124147 |  erot = 3.7084241647314 | epot = -12.5159472355138 | etot = -5.62847192954091
549000  ekin = 3.18335924848429 |  erot = 3.64619443420879 | epot = -12.4580256122342 | etot = -5.62847192954106
550000  ekin = 3.18506506655558 |  erot = 3.58603484426568 | epot = -12.3995718404765 | etot = -5.62847192965522
551000  ekin = 3.18354118861454 |  erot = 3.52751972612579 | epot = -12.3395328445343 | etot = -5.62847192979395
552000  ekin = 3.17814056094957 |  erot = 3.46973317227297 | epot = -12.276345663158 | etot = -5.62847192993543
553000  ekin = 3.16816249042625 |  erot = 3.41187716292074 | epot = -12.2085115833935 | etot = -5.62847193004651
554000  ekin = 3.15297464050937 |  erot = 3.3536338689158 | epot = -12.1350804395152 | etot = -5.62847193009002
555000  ekin = 3.13218065536703 |  erot = 3.29554931590991 | epot = -12.0562019013085 | etot = -5.62847193003159
556000  ekin = 3.10581995737585 |  erot = 3.23932890454433 | epot = -11.9736207917684 | etot = -5.62847192984819
557000  ekin = 3.07457883892024 |  erot = 3.18795403307971 | epot = -11.8910048015327 | etot = -5.62847192953273
558000  ekin = 3.03998262647823 |  erot = 3.14553707336728 | epot = -11.8139916289567 | etot = -5.62847192911119
559000  ekin = 3.00450378979529 |  erot = 3.11693712838135 | epot = -11.74991284676 | etot = -5.62847192858338
560000  ekin = 2.97145203617486 |  erot = 3.10758181987835 | epot = -11.7075057840781 | etot = -5.6284719280249
561000  ekin = 2.9445193409719 |  erot = 3.1226726975613 | epot = -11.6956639660998 | etot = -5.62847192756663
562000  ekin = 2.92714140953049 |  erot = 3.16633554924927 | epot = -11.7219488860304 | etot = -5.62847192725067
563000  ekin = 2.92206147621624 |  erot = 3.24077054356721 | epot = -11.7913039469852 | etot = -5.62847192720177
564000  ekin = 2.9303162765058 |  erot = 3.34563410958401 | epot = -11.9044223135922 | etot = -5.62847192750237
565000  ekin = 2.95068712287461 |  erot = 3.47751232965792 | epot = -12.0566713806888 | etot = -5.62847192815629
566000  ekin = 2.97962685516546 |  erot = 3.62985521359449 | epot = -12.2379539978873 | etot = -5.62847192912733
567000  ekin = 3.01171593570966 |  erot = 3.79324477341156 | epot = -12.433432639439 | etot = -5.6284719303178
568000  ekin = 3.04054477443262 |  erot = 3.95610049176869 | epot = -12.6251171977915 | etot = -5.62847193159014
569000  ekin = 3.05981811075639 |  erot = 4.10576505738381 | epot = -12.7940551009255 | etot = -5.62847193278528
570000  ekin = 3.0644675829486 |  erot = 4.22987220713844 | epot = -12.9228117238307 | etot = -5.62847193374362
571000  ekin = 3.05159191038915 |  erot = 4.31782950110086 | epot = -12.9978933458183 | etot = -5.62847193432825
572000  ekin = 3.02108996837912 |  erot = 4.36217384043965 | epot = -13.0117357432693 | etot = -5.62847193445057
573000  ekin = 2.97589592645592 |  erot = 4.35953364447556 | epot = -12.9639015050205 | etot = -5.62847193408906
574000  ekin = 2.92177260947723 |  erot = 4.31098813646397 | epot = -12.8612326792421 | etot = -5.62847193330093
575000  ekin = 2.86675845146959 |  erot = 4.22206447601036 | epot = -12.7172948575204 | etot = -5.62847193004041
576000  ekin = 2.82238695046586 |  erot = 4.11002108696406 | epot = -12.5608799669495 | etot = -5.62847192951959
577000  ekin = 2.79586021291833 |  erot = 3.98405314229076 | epot = -12.4083852842984 | etot = -5.62847192908935
578000  ekin = 2.79062678654382 |  erot = 3.84816173894663 | epot = -12.2672604543405 | etot = -5.62847192885001
579000  ekin = 2.80727876771888 |  erot = 3.70630768392053 | epot = -12.1420583804731 | etot = -5.62847192883372
580000  ekin = 2.84308800292605 |  erot = 3.56147502216722 | epot = -12.0330349543939 | etot = -5.62847192930065
581000  ekin = 2.89275945177897 |  erot = 3.41677708031419 | epot = -11.9380084614682 | etot = -5.62847192937508
582000  ekin = 2.94948274107644 |  erot = 3.27852635624243 | epot = -11.8564810267634 | etot = -5.62847192944448
583000  ekin = 3.00600312789741 |  erot = 3.1533950786073 | epot = -11.7878701359326 | etot = -5.6284719294279
584000  ekin = 3.05615870311247 |  erot = 3.04800743027119 | epot = -11.732638062687 | etot = -5.62847192930332
585000  ekin = 3.09596263916476 |  erot = 2.968289081472 | epot = -11.6927236497299 | etot = -5.62847192909312
586000  ekin = 3.1240729820665 |  erot = 2.91878541584387 | epot = -11.6713303267393 | etot = -5.62847192882893
587000  ekin = 3.14174614227723 |  erot = 2.90225430088924 | epot = -11.6724723717057 | etot = -5.62847192853924
588000  ekin = 3.15240031628416 |  erot = 2.91960613639277 | epot = -11.7004783809397 | etot = -5.62847192826275
589000  ekin = 3.16081808262359 |  erot = 2.97006448170834 | epot = -11.759354492374 | etot = -5.62847192804203
590000  ekin = 3.17204827390523 |  erot = 3.05134069924416 | epot = -11.8518609010671 | etot = -5.62847192791768
591000  ekin = 3.1915029984417 |  erot = 3.16015018729677 | epot = -11.9801251137328 | etot = -5.62847192799432
592000  ekin = 3.22264872307366 |  erot = 3.29204057513511 | epot = -12.1431612265282 | etot = -5.62847192831939
593000  ekin = 3.26585695467704 |  erot = 3.4409234693527 | epot = -12.3352523528906 | etot = -5.62847192886082
594000  ekin = 3.31918005198973 |  erot = 3.59965335598212 | epot = -12.5473053375383 | etot = -5.62847192956641
595000  ekin = 3.37897127085091 |  erot = 3.76045843937909 | epot = -12.7679016405216 | etot = -5.62847193029161
596000  ekin = 3.43824068579621 |  erot = 3.91359738320659 | epot = -12.9803100016295 | etot = -5.62847193262674
597000  ekin = 3.48744876797661 |  erot = 4.04782437854252 | epot = -13.1637450797796 | etot = -5.62847193326049
598000  ekin = 3.52187002168305 |  erot = 4.15698580417259 | epot = -13.3073277594703 | etot = -5.62847193361464
599000  ekin = 3.53831455069176 |  erot = 4.23767846700725 | epot = -13.4044649513853 | etot = -5.62847193368632
600000  ekin = 3.53510970425869 |  erot = 4.28920847092881 | epot = -13.4527901087059 | etot = -5.62847193351844
601000  ekin = 3.5119104181269 |  erot = 4.31320178181122 | epot = -13.4535841331187 | etot = -5.62847193318058
602000  ekin = 3.46937521140365 |  erot = 4.31295152724497 | epot = -13.4107986713959 | etot = -5.62847193274732
603000  ekin = 3.40882221234829 |  erot = 4.29270411912039 | epot = -13.3299982637487 | etot = -5.62847193227998
604000  ekin = 3.3319457097552 |  erot = 4.25705245846633 | epot = -13.2174701000409 | etot = -5.62847193181935
605000  ekin = 3.24062643781087 |  erot = 4.21052248019803 | epot = -13.0796208493942 | etot = -5.62847193138528
606000  ekin = 3.13683319319537 |  erot = 4.15735875777249 | epot = -12.9226638819498 | etot = -5.62847193098197
607000  ekin = 3.02259481104076 |  erot = 4.10146703753048 | epot = -12.7525337791745 | etot = -5.6284719306033
608000  ekin = 2.90001652255393 |  erot = 4.04645475136567 | epot = -12.5749432041587 | etot = -5.62847193023912
609000  ekin = 2.77131728803756 |  erot = 3.99571460760405 | epot = -12.3955038255209 | etot = -5.6284719298793
610000  ekin = 2.63886938886227 |  erot = 3.95250622970356 | epot = -12.2198475480834 | etot = -5.62847192951758
611000  ekin = 2.50524882246083 |  erot = 3.92003293757143 | epot = -12.0537536888962 | etot = -5.62847192886393
612000  ekin = 2.37382087276798 |  erot = 3.90218869833179 | epot = -11.9044814996347 | etot = -5.62847192853494
613000  ekin = 2.24769613357653 |  erot = 3.90186788729144 | epot = -11.7780359490939 | etot = -5.62847192822598
614000  ekin = 2.12975142856367 |  erot = 3.92103062094604 | epot = -11.6792539774892 | etot = -5.62847192797944
615000  ekin = 2.0228367645592 |  erot = 3.96080056809055 | epot = -11.6121092604793 | etot = -5.62847192782951
616000  ekin = 1.92967019034137 |  erot = 4.02099162165578 | epot = -11.5791337398069 | etot = -5.62847192780974
617000  ekin = 1.85273791847033 |  erot = 4.09974474387205 | epot = -11.5809545902914 | etot = -5.62847192794904
618000  ekin = 1.79420296278273 |  erot = 4.19322703606633 | epot = -11.6159019271099 | etot = -5.62847192826087
619000  ekin = 1.75583197409021 |  erot = 4.29552606632245 | epot = -11.679829969143 | etot = -5.62847192873033
620000  ekin = 1.7389587007648 |  erot = 4.39891672361384 | epot = -11.7663473536822 | etot = -5.62847192930352
621000  ekin = 1.74449834692097 |  erot = 4.49462250654354 | epot = -11.8675927833535 | etot = -5.628471929889
622000  ekin = 1.77300875701635 |  erot = 4.5740351808289 | epot = -11.9755158682257 | etot = -5.62847193038045
623000  ekin = 1.82476626639036 |  erot = 4.63011744389274 | epot = -12.0833556409766 | etot = -5.62847193069353
624000  ekin = 1.89980556067547 |  erot = 4.65854151390597 | epot = -12.1868190053782 | etot = -5.62847193079678
625000  ekin = 1.99788930977538 |  erot = 4.65817060160803 | epot = -12.2845318421026 | etot = -5.62847193071917
626000  ekin = 2.11841938976547 |  erot = 4.63077870086047 | epot = -12.377670021153 | etot = -5.62847193052708
627000  ekin = 2.2603434046794 |  erot = 4.58024268390684 | epot = -12.4690580188766 | etot = -5.62847193029034
628000  ekin = 2.42211143949758 |  erot = 4.51161612047238 | epot = -12.5621994900333 | etot = -5.62847193006333
629000  ekin = 2.60047669379204 |  erot = 4.43316974502685 | epot = -12.6621183682218 | etot = -5.6284719294029
630000  ekin = 2.75035748973407 |  erot = 4.31003905746659 | epot = -12.6888685129064 | etot = -5.62847196570572
631000  ekin = 2.81471524114888 |  erot = 4.11774535987957 | epot = -12.5609325367908 | etot = -5.62847193576233
632000  ekin = 2.95867552186459 |  erot = 4.07926707197989 | epot = -12.6664145267133 | etot = -5.62847193286876
633000  ekin = 3.21010693564408 |  erot = 4.20581326808831 | epot = -13.044392165808 | etot = -5.62847196207558
634000  ekin = 3.41641131475145 |  erot = 4.25928215921525 | epot = -13.3041654103361 | etot = -5.62847193636945
635000  ekin = 3.57385274056263 |  erot = 4.24018711592355 | epot = -13.4425117936259 | etot = -5.62847193713971
636000  ekin = 3.718945311801 |  erot = 4.21896102693659 | epot = -13.5663782767134 | etot = -5.62847193797582
637000  ekin = 3.8455596284337 |  erot = 4.19009538982228 | epot = -13.6641269569273 | etot = -5.62847193867127
638000  ekin = 3.94874232728068 |  erot = 4.14881281915095 | epot = -13.7260270854716 | etot = -5.62847193903999
639000  ekin = 4.02564653214614 |  erot = 4.09271382107963 | epot = -13.7468322922318 | etot = -5.628471939006
640000  ekin = 4.07582551390323 |  erot = 4.02260436106392 | epot = -13.7269018135857 | etot = -5.62847193861859
641000  ekin = 4.10019063796125 |  erot = 3.94203419553359 | epot = -13.6706967719601 | etot = -5.62847193846523
642000  ekin = 4.09923586033072 |  erot = 3.85569636497234 | epot = -13.5834041631893 | etot = -5.62847193788624
643000  ekin = 4.07616080024281 |  erot = 3.76850329620035 | epot = -13.473136033805 | etot = -5.62847193736188
644000  ekin = 4.03483546355683 |  erot = 3.68428538398333 | epot = -13.3475927844876 | etot = -5.62847193694743
645000  ekin = 3.97939693587991 |  erot = 3.60521279233617 | epot = -13.2130816648421 | etot = -5.628471936626
646000  ekin = 3.91424157448984 |  erot = 3.53197746503377 | epot = -13.0746909758669 | etot = -5.62847193634324
647000  ekin = 3.84412108409252 |  erot = 3.46430751164164 | epot = -12.9369005319183 | etot = -5.62847193618415
648000  ekin = 3.77442093502291 |  erot = 3.40030625088891 | epot = -12.8031991217785 | etot = -5.62847193586672
649000  ekin = 3.71064844449713 |  erot = 3.3390211685189 | epot = -12.6781415485608 | etot = -5.6284719355448
650000  ekin = 3.65777289001738 |  erot = 3.28036981752717 | epot = -12.5666146428168 | etot = -5.62847193527225
651000  ekin = 3.61962254782514 |  erot = 3.22458240426426 | epot = -12.472676887185 | etot = -5.62847193509559
652000  ekin = 3.59838867000836 |  erot = 3.1720159303594 | epot = -12.3988765354008 | etot = -5.62847193503302
653000  ekin = 3.5944766006941 |  erot = 3.12302902480413 | epot = -12.3459775605662 | etot = -5.62847193506799
654000  ekin = 3.60674141923216 |  erot = 3.07797678363004 | epot = -12.3131901380227 | etot = -5.62847193516046
655000  ekin = 3.63298841310497 |  erot = 3.03728497070913 | epot = -12.2987453190856 | etot = -5.62847193527148
656000  ekin = 3.67052655525371 |  erot = 3.00147990291574 | epot = -12.3004783935576 | etot = -5.62847193538816
657000  ekin = 3.71734630698566 |  erot = 2.97084073544724 | epot = -12.316658977828 | etot = -5.62847193539508
[...]
837000  ekin = 3.13471079161783 |  erot = 2.97067133128647 | epot = -11.7338540916977 | etot = -5.62847196879336
838000  ekin = 3.26467977258925 |  erot = 2.97489018962961 | epot = -11.868041931491 | etot = -5.6284719692721
839000  ekin = 3.39062362376756 |  erot = 2.97696578759687 | epot = -11.996061381085 | etot = -5.62847196972062
840000  ekin = 3.50719614412614 |  erot = 2.97513773331003 | epot = -12.1108058475614 | etot = -5.62847197012521
841000  ekin = 3.60951430604059 |  erot = 2.96792302507537 | epot = -12.2059093015897 | etot = -5.62847197047374
842000  ekin = 3.69330308518347 |  erot = 2.95419217338244 | epot = -12.2759672293193 | etot = -5.62847197075336
843000  ekin = 3.75502928183249 |  erot = 2.93326272838683 | epot = -12.3167639811665 | etot = -5.6284719709472
844000  ekin = 3.79205095849207 |  erot = 2.90501003140656 | epot = -12.3255329609343 | etot = -5.62847197103563
845000  ekin = 3.80278827051812 |  erot = 2.86997708180754 | epot = -12.3012373233257 | etot = -5.62847197100001
846000  ekin = 3.78689078411132 |  erot = 2.82944607013668 | epot = -12.2448088250774 | etot = -5.62847197082944
847000  ekin = 3.74534923778175 |  erot = 2.78543387773398 | epot = -12.1592550860438 | etot = -5.62847197052809
848000  ekin = 3.68048960912791 |  erot = 2.7405849101059 | epot = -12.0495464893516 | etot = -5.62847197011777
849000  ekin = 3.59580402260426 |  erot = 2.69795473269199 | epot = -11.9222307249373 | etot = -5.62847196964104
850000  ekin = 3.49561210978297 |  erot = 2.66069826104243 | epot = -11.7847823399769 | etot = -5.62847196915147
851000  ekin = 3.38460421122655 |  erot = 2.63169878814846 | epot = -11.6447749680818 | etot = -5.62847196870683
852000  ekin = 3.26735834566491 |  erot = 2.61319105325398 | epot = -11.5090213672748 | etot = -5.62847196835588
853000  ekin = 3.1479297075561 |  erot = 2.60644045830201 | epot = -11.3828421339858 | etot = -5.62847196812773
854000  ekin = 3.02961721405423 |  erot = 2.61155167607755 | epot = -11.269640858154 | etot = -5.62847196802221
855000  ekin = 2.91497870553126 |  erot = 2.62749311825266 | epot = -11.1709437918019 | etot = -5.62847196801799
856000  ekin = 2.80592683546919 |  erot = 2.65229723469632 | epot = -11.0866960382413 | etot = -5.62847196807582
857000  ekin = 2.70394323006797 |  erot = 2.68342637104439 | epot = -11.0158415692656 | etot = -5.62847196815328
858000  ekin = 2.61028084914955 |  erot = 2.71820874451566 | epot = -10.9569615618822 | etot = -5.62847196821697
859000  ekin = 2.52608469575664 |  erot = 2.75423459885826 | epot = -10.9087912628644 | etot = -5.62847196824949
860000  ekin = 2.45241725224253 |  erot = 2.78962480160024 | epot = -10.8705140220913 | etot = -5.6284719682485
861000  ekin = 2.39021948208196 |  erot = 2.82313150399853 | epot = -10.8418229543041 | etot = -5.62847196822359
862000  ekin = 2.34025129432447 |  erot = 2.85407946454256 | epot = -10.8228027270579 | etot = -5.62847196819088
863000  ekin = 2.30304188719405 |  erot = 2.88219277718097 | epot = -10.8137066325431 | etot = -5.62847196816809
864000  ekin = 2.27886005953314 |  erot = 2.9073707396289 | epot = -10.8147027673327 | etot = -5.6284719681707
865000  ekin = 2.26770197122024 |  erot = 2.92947677564872 | epot = -10.8256507150772 | etot = -5.62847196820827
866000  ekin = 2.26929189173465 |  erot = 2.94819404331762 | epot = -10.8459579033344 | etot = -5.62847196828217
867000  ekin = 2.28309242098448 |  erot = 2.96298089389733 | epot = -10.8745452832686 | etot = -5.62847196838678
868000  ekin = 2.30832281578976 |  erot = 2.9731339916237 | epot = -10.9099287759219 | etot = -5.62847196850841
869000  ekin = 2.34398135028736 |  erot = 2.9779398058408 | epot = -10.9503931247595 | etot = -5.62847196863138
870000  ekin = 2.38886744610776 |  erot = 2.9768680984888 | epot = -10.9942075133382 | etot = -5.62847196874161
871000  ekin = 2.44159861644086 |  erot = 2.9697417543195 | epot = -11.0398123395923 | etot = -5.62847196883198
872000  ekin = 2.50061961429981 |  erot = 2.95681803683615 | epot = -11.0859096200411 | etot = -5.6284719689051
873000  ekin = 2.56420807954568 |  erot = 2.93874614033424 | epot = -11.1314261888503 | etot = -5.6284719689704
874000  ekin = 2.63049126831982 |  erot = 2.91641905740985 | epot = -11.1753822947678 | etot = -5.62847196903808
875000  ekin = 2.69749664249756 |  erot = 2.89079068954988 | epot = -11.2167593011576 | etot = -5.62847196911012
876000  ekin = 2.76325740675804 |  erot = 2.86275138503496 | epot = -11.2544807609686 | etot = -5.62847196917555
877000  ekin = 2.82597856863468 |  erot = 2.83312911557057 | epot = -11.2875796534151 | etot = -5.62847196920984
878000  ekin = 2.88426505829225 |  erot = 2.8028295996575 | epot = -11.3155666270839 | etot = -5.6284719691342
879000  ekin = 2.93899285293024 |  erot = 2.77402557630056 | epot = -11.34149039814 | etot = -5.62847196890922
880000  ekin = 2.9907442928324 |  erot = 2.74904466279386 | epot = -11.3682609245659 | etot = -5.62847196893963
881000  ekin = 3.03734868771609 |  erot = 2.72816457974408 | epot = -11.3939852362382 | etot = -5.62847196877804
882000  ekin = 3.07935286123683 |  erot = 2.71303253411371 | epot = -11.420857363962 | etot = -5.62847196861141
883000  ekin = 3.11756796882154 |  erot = 2.70517731754279 | epot = -11.4512172548421 | etot = -5.62847196847779
884000  ekin = 3.15280252648277 |  erot = 2.70569769530572 | epot = -11.4869721901915 | etot = -5.62847196840304
885000  ekin = 3.18571613006987 |  erot = 2.71504911483769 | epot = -11.5292372133076 | etot = -5.62847196840008
886000  ekin = 3.21676773190128 |  erot = 2.73290580017899 | epot = -11.5781455005543 | etot = -5.62847196847406
887000  ekin = 3.24623562226349 |  erot = 2.75806669072142 | epot = -11.6327742816134 | etot = -5.62847196862853
888000  ekin = 3.27425941812975 |  erot = 2.78837179655279 | epot = -11.6911031835497 | etot = -5.62847196886712
889000  ekin = 3.3008647868486 |  erot = 2.8206406848597 | epot = -11.7499774408962 | etot = -5.62847196918789
890000  ekin = 3.32596924664377 |  erot = 2.85071439974523 | epot = -11.8051556159586 | etot = -5.62847196956963
891000  ekin = 3.3494125302666 |  erot = 2.87373382385749 | epot = -11.851618324083 | etot = -5.62847196995895
892000  ekin = 3.3710752334316 |  erot = 2.88476437075701 | epot = -11.8843115744572 | etot = -5.62847197026858
893000  ekin = 3.39111184878945 |  erot = 2.87974242698588 | epot = -11.8993262461759 | etot = -5.62847197040062
894000  ekin = 3.41023212682091 |  erot = 2.85650829464543 | epot = -11.8952123917519 | etot = -5.62847197028557
895000  ekin = 3.42987730623099 |  erot = 2.81553499450355 | epot = -11.8738842706564 | etot = -5.62847196992191
896000  ekin = 3.4521414871966 |  erot = 2.76001213098741 | epot = -11.8406255875651 | etot = -5.62847196938105
897000  ekin = 3.47941735349101 |  erot = 2.69521466344218 | epot = -11.8031039857132 | etot = -5.62847196878
898000  ekin = 3.51352961774687 |  erot = 2.62737086699414 | epot = -11.7693724661463 | etot = -5.62847198140525
899000  ekin = 3.48893911170257 |  erot = 2.56291214018371 | epot = -11.680323221338 | etot = -5.62847196945168
900000  ekin = 3.4553568907614 |  erot = 2.55015985074646 | epot = -11.6339887038549 | etot = -5.62847196234703
901000  ekin = 3.50186287926851 |  erot = 2.58894159166376 | epot = -11.7192764467065 | etot = -5.62847197577421
902000  ekin = 3.56610213430565 |  erot = 2.58196928552343 | epot = -11.7765433923774 | etot = -5.62847197254829
903000  ekin = 3.62814875748619 |  erot = 2.56232070256928 | epot = -11.8189414329778 | etot = -5.62847197292237
904000  ekin = 3.69112394778539 |  erot = 2.55247638329345 | epot = -11.8720723044881 | etot = -5.62847197340926
905000  ekin = 3.75091280670004 |  erot = 2.54985569601294 | epot = -11.9292404766307 | etot = -5.62847197391775
906000  ekin = 3.80322507054559 |  erot = 2.5519127235005 | epot = -11.9836097683908 | etot = -5.62847197434475
907000  ekin = 3.84434229504826 |  erot = 2.55683360389676 | epot = -12.0296478735483 | etot = -5.6284719746033
908000  ekin = 3.87190065051165 |  erot = 2.5639410462087 | epot = -12.0643136713726 | etot = -5.6284719746522
909000  ekin = 3.88547928357153 |  erot = 2.57365300994754 | epot = -12.0876042680263 | etot = -5.62847197450725
910000  ekin = 3.88680452051545 |  erot = 2.58702435539525 | epot = -12.102300850142 | etot = -5.6284719742313
911000  ekin = 3.87951721444864 |  erot = 2.60508796084917 | epot = -12.1130771492034 | etot = -5.62847197390559
912000  ekin = 3.86859234827992 |  erot = 2.62827701107552 | epot = -12.1253413329605 | etot = -5.62847197360508
913000  ekin = 3.85955914342345 |  erot = 2.65612234635806 | epot = -12.1441534631677 | etot = -5.62847197338621
914000  ekin = 3.85765975177031 |  erot = 2.68725904453497 | epot = -12.1733907689868 | etot = -5.62847197268156
915000  ekin = 3.86988559571622 |  erot = 2.72155495548121 | epot = -12.2199125240551 | etot = -5.62847197285769
916000  ekin = 3.89721211456391 |  erot = 2.75899199240082 | epot = -12.2846760802282 | etot = -5.62847197326344
917000  ekin = 3.93597306364465 |  erot = 2.79756616036698 | epot = -12.3620111977148 | etot = -5.62847197370318
918000  ekin = 3.98211349418525 |  erot = 2.83523643224003 | epot = -12.445821900574 | etot = -5.6284719741487
919000  ekin = 4.03109883844322 |  erot = 2.86939982480411 | epot = -12.5289706388256 | etot = -5.62847197557833
920000  ekin = 4.07575006230927 |  erot = 2.89203458673442 | epot = -12.5962566249402 | etot = -5.62847197589655
921000  ekin = 4.11121319457722 |  erot = 2.89963705393532 | epot = -12.639322225149 | etot = -5.62847197663646
922000  ekin = 4.12946328391778 |  erot = 2.89101490977175 | epot = -12.6489501705974 | etot = -5.6284719769079
923000  ekin = 4.12574550946633 |  erot = 2.8665671981706 | epot = -12.6207846845301 | etot = -5.62847197689318
924000  ekin = 4.09806255123933 |  erot = 2.82817436858678 | epot = -12.5547088964562 | etot = -5.62847197663008
925000  ekin = 4.04683812637414 |  erot = 2.77889166056976 | epot = -12.4542017631617 | etot = -5.62847197621779
926000  ekin = 3.97415980566017 |  erot = 2.72240485652024 | epot = -12.3250366379431 | etot = -5.62847197576273
927000  ekin = 3.88290109498485 |  erot = 2.66247239681705 | epot = -12.1738454671285 | etot = -5.62847197532659
928000  ekin = 3.77619172658257 |  erot = 2.60258197479873 | epot = -12.0072456762878 | etot = -5.62847197490655
929000  ekin = 3.65741734147983 |  erot = 2.54590496593242 | epot = -11.8317942818706 | etot = -5.62847197445834
930000  ekin = 3.53056331684252 |  erot = 2.49545263795598 | epot = -11.6544879287383 | etot = -5.62847197393979
931000  ekin = 3.40054526275514 |  erot = 2.45429285214303 | epot = -11.4833100879277 | etot = -5.62847197302951
932000  ekin = 3.2735130769572 |  erot = 2.42812143184985 | epot = -11.3301064814381 | etot = -5.62847197263101
933000  ekin = 3.1547941318672 |  erot = 2.42017429039899 | epot = -11.203440394495 | etot = -5.62847197222884
934000  ekin = 3.04934557535036 |  erot = 2.43124949991495 | epot = -11.1090670471418 | etot = -5.62847197187653
935000  ekin = 2.96178382980827 |  erot = 2.46165171678859 | epot = -11.0519075182154 | etot = -5.62847197161849
936000  ekin = 2.89581269559496 |  erot = 2.51113391196445 | epot = -11.0354185790396 | etot = -5.62847197148017
937000  ekin = 2.85385879599465 |  erot = 2.57889785928623 | epot = -11.0612286267472 | etot = -5.62847197146635
938000  ekin = 2.83694343001923 |  erot = 2.6636481594411 | epot = -11.1290635610263 | etot = -5.62847197156602
939000  ekin = 2.84476696175407 |  erot = 2.76369076365765 | epot = -11.2369296971655 | etot = -5.62847197175376
940000  ekin = 2.87595320360482 |  erot = 2.87707537461931 | epot = -11.3815005502196 | etot = -5.62847197199545
941000  ekin = 2.92838858001955 |  erot = 3.00178159280774 | epot = -11.5586421450796 | etot = -5.62847197225227
942000  ekin = 2.9995869132192 |  erot = 3.13593595044735 | epot = -11.7639948361556 | etot = -5.62847197248909
943000  ekin = 3.0870148592634 |  erot = 3.27802583637447 | epot = -11.9935126683181 | etot = -5.62847197268019
944000  ekin = 3.18658687067572 |  erot = 3.42629435382754 | epot = -12.2413531983922 | etot = -5.6284719738889
945000  ekin = 3.29120912059234 |  erot = 3.57701253151929 | epot = -12.4966936265207 | etot = -5.62847197440903
946000  ekin = 3.39621217382335 |  erot = 3.72637389194813 | epot = -12.751058040774 | etot = -5.62847197500256
947000  ekin = 3.49687303139688 |  erot = 3.86977321087706 | epot = -12.995118217967 | etot = -5.62847197569307
948000  ekin = 3.58827211342579 |  erot = 4.00151346934737 | epot = -13.2182575592557 | etot = -5.6284719764825
949000  ekin = 3.66536645648366 |  erot = 4.11475106286826 | epot = -13.4085894966865 | etot = -5.62847197733456
950000  ekin = 3.72323942225282 |  erot = 4.2018019204164 | epot = -13.5535133208371 | etot = -5.62847197816783
951000  ekin = 3.75754185954721 |  erot = 4.25489778578607 | epot = -13.6409116241941 | etot = -5.62847197886084
952000  ekin = 3.76507381994726 |  erot = 4.26734583975722 | epot = -13.6608916389806 | etot = -5.62847197927613
953000  ekin = 3.74438822751692 |  erot = 4.2348758585431 | epot = -13.6077360653567 | etot = -5.62847197929667
954000  ekin = 3.69625243360639 |  erot = 4.15681815728013 | epot = -13.4815425697514 | etot = -5.62847197886491
955000  ekin = 3.62380420681495 |  erot = 4.03673172078309 | epot = -13.2890079056062 | etot = -5.62847197800815
956000  ekin = 3.52555337133862 |  erot = 3.88073805524869 | epot = -13.0347634062255 | etot = -5.62847197963814
957000  ekin = 3.39894639446542 |  erot = 3.70474138125381 | epot = -12.7321597502999 | etot = -5.62847197458067
958000  ekin = 3.27782879888666 |  erot = 3.53760737759299 | epot = -12.4439081494372 | etot = -5.62847197295753
959000  ekin = 3.17835029141015 |  erot = 3.3860220813859 | epot = -12.1928443476074 | etot = -5.62847197481135
960000  ekin = 3.09019088366366 |  erot = 3.23509493866211 | epot = -11.9537577987781 | etot = -5.62847197645238
961000  ekin = 3.00426259724366 |  erot = 3.08248133856543 | epot = -11.7152159113545 | etot = -5.62847197554538
962000  ekin = 2.92693480287524 |  erot = 2.94805481090011 | epot = -11.503461589107 | etot = -5.62847197533165
963000  ekin = 2.85972055896303 |  erot = 2.83488454694388 | epot = -11.3230770809329 | etot = -5.62847197502599
964000  ekin = 2.80427359649003 |  erot = 2.7458397323807 | epot = -11.1785853037181 | etot = -5.62847197484733
965000  ekin = 2.76170822137445 |  erot = 2.68249826161419 | epot = -11.0726784577821 | etot = -5.62847197479342
966000  ekin = 2.73254763909516 |  erot = 2.64503832974184 | epot = -11.0060579437089 | etot = -5.62847197487186
967000  ekin = 2.71665522029914 |  erot = 2.6321892227313 | epot = -10.977316418118 | etot = -5.62847197508759
968000  ekin = 2.71315992306406 |  erot = 2.64124364041803 | epot = -10.982875538909 | etot = -5.62847197542689
969000  ekin = 2.72046614413587 |  erot = 2.66825860450776 | epot = -11.0171967244959 | etot = -5.62847197585225
970000  ekin = 2.73639578720189 |  erot = 2.70848273901266 | epot = -11.073350502524 | etot = -5.62847197630945
971000  ekin = 2.75849382889521 |  erot = 2.75695663928078 | epot = -11.1439224448347 | etot = -5.62847197665867
972000  ekin = 2.78540545993111 |  erot = 2.80984083468142 | epot = -11.223718271544 | etot = -5.62847197693148
973000  ekin = 2.81581408574296 |  erot = 2.86412704467686 | epot = -11.3084131075359 | etot = -5.62847197711603
974000  ekin = 2.84847994764276 |  erot = 2.91762903997103 | epot = -11.39458096482 | etot = -5.62847197720621
975000  ekin = 2.88260770437837 |  erot = 2.96920773930135 | epot = -11.4802874208838 | etot = -5.6284719772041
976000  ekin = 2.90702475089107 |  erot = 3.01964918708571 | epot = -11.5551459395678 | etot = -5.62847200159102
977000  ekin = 2.82994038313262 |  erot = 3.1046759367233 | epot = -11.56308829771 | etot = -5.62847197785406
978000  ekin = 2.82908361853011 |  erot = 3.22546638177145 | epot = -11.6830220040236 | etot = -5.62847200372208
979000  ekin = 2.83706100101797 |  erot = 3.25481873193426 | epot = -11.7203517230468 | etot = -5.62847199009456
980000  ekin = 2.83601345126442 |  erot = 3.27042511729779 | epot = -11.734910558692 | etot = -5.62847199012974
981000  ekin = 2.82679467511876 |  erot = 3.27908746270682 | epot = -11.7343541279968 | etot = -5.62847199017119
982000  ekin = 2.80889457098519 |  erot = 3.28090658573082 | epot = -11.7182731469315 | etot = -5.62847199021552
983000  ekin = 2.78208898684029 |  erot = 3.27578647399314 | epot = -11.6863474510751 | etot = -5.6284719902417
984000  ekin = 2.74660136946086 |  erot = 3.26353952657175 | epot = -11.6386128862475 | etot = -5.62847199021492
985000  ekin = 2.70333214509912 |  erot = 3.24411391278609 | epot = -11.5759180479831 | etot = -5.62847199009788
986000  ekin = 2.65408912851003 |  erot = 3.21786526758631 | epot = -11.5004263859601 | etot = -5.62847198986377
987000  ekin = 2.57871631213487 |  erot = 3.17247278795391 | epot = -11.3796610944397 | etot = -5.62847199435095
988000  ekin = 2.53018927221153 |  erot = 3.15315341665409 | epot = -11.3118146908349 | etot = -5.62847200196926
989000  ekin = 2.49566278432532 |  erot = 3.12952117702532 | epot = -11.2536559533014 | etot = -5.62847199195072
990000  ekin = 2.46227182730054 |  erot = 3.09741758099033 | epot = -11.1881613996865 | etot = -5.62847199139563
991000  ekin = 2.44592299465508 |  erot = 3.07158095323439 | epot = -11.1459759390222 | etot = -5.6284719911327
992000  ekin = 2.45174281775109 |  erot = 3.05611048773212 | epot = -11.1363252964156 | etot = -5.62847199093241
993000  ekin = 2.48099671885757 |  erot = 3.05281518455329 | epot = -11.1622838941895 | etot = -5.62847199077867
994000  ekin = 2.5341567043073 |  erot = 3.06359154693802 | epot = -11.2262202419382 | etot = -5.62847199069284
995000  ekin = 2.61088853498868 |  erot = 3.09015398855457 | epot = -11.3295145142281 | etot = -5.62847199068484
996000  ekin = 2.71011819881867 |  erot = 3.13378298994141 | epot = -11.4723731795164 | etot = -5.62847199075628
997000  ekin = 2.83015603472719 |  erot = 3.19515267999043 | epot = -11.6537807056246 | etot = -5.62847199090702
998000  ekin = 2.96878571817777 |  erot = 3.27423191633448 | epot = -11.8714896256586 | etot = -5.62847199114635
999000  ekin = 3.12322522849005 |  erot = 3.37022004990676 | epot = -12.1219172698973 | etot = -5.62847199150048
1000000  ekin = 3.28990650732554 |  erot = 3.48146010968924 | epot = -12.3998386090274 | etot = -5.62847199201262
 1000000   0.14621807  -0.83009398  0.055104069  -0.56937076 4.8223735e-05        64000 
Loop time of 15.5148 on 8 procs for 1000000 steps with 16 atoms

Performance: 55688.585 tau/day, 64454.381 timesteps/s
99.9% CPU use with 8 MPI tasks x no OpenMP threads

MPI task timing breakdown:
Section |  min time  |  avg time  |  max time  |%varavg| %total
---------------------------------------------------------------
Pair    | 0.95481    | 3.3133     | 6.3401     | 103.6 | 21.36
Bond    | 0.092767   | 0.17039    | 0.27186    |  16.8 |  1.10
Neigh   | 0.0046822  | 0.0047698  | 0.0048676  |   0.1 |  0.03
Comm    | 5.4461     | 9.0551     | 10.981     |  64.7 | 58.36
Output  | 0.044281   | 0.051218   | 0.064358   |   3.3 |  0.33
Modify  | 0.19942    | 0.38504    | 0.54415    |  18.4 |  2.48
Other   |            | 2.535      |            |       | 16.34

Nlocal:        2.00000 ave           4 max           0 min
Histogram: 2 0 2 0 0 0 0 2 0 2
Nghost:        14.0000 ave          16 max          12 min
Histogram: 2 0 2 0 0 0 0 2 0 2
Neighs:        13.2500 ave          47 max           0 min
Histogram: 2 3 1 0 0 1 0 0 0 1

Total # of neighbors = 106
Ave neighs/atom = 6.6250000
Ave special neighs/atom = 3.7500000
Neighbor list builds = 1000
Dangerous builds = 0

write_data last_config.${number}.* nocoeff
write_data last_config.2.* nocoeff
System init for write_data ...
#write_restart last_config.${number}.*
Total wall time: 0:00:15
