LAMMPS (4 Jan 2019)
# Monte Carlo relaxation of perturbed 2d hex lattice

# set these parameters
# make sure neigh skin > 2*deltamove

variable iter loop 3000            # number of Monte Carlo moves
variable deltaperturb equal 0.2    # max size of initial perturbation per dim
variable deltamove equal 0.1       # max size of MC move in one dimension
variable density equal 1.0         # reduced LJ density of atoms on lattice
variable kT equal 0.05             # effective T in Boltzmann factor
variable seed equal 582783         # RNG seed

# problem setup

units		lj
atom_style	atomic
atom_modify     map array sort 0 0.0

dimension       2

lattice		hex ${density}
lattice		hex 1
Lattice spacing in x,y,z = 1.07457 1.86121 1.07457
region		box block 0 10 0 5 -0.5 0.5

create_box	1 box
Created orthogonal box = (0 0 -0.537285) to (10.7457 9.30605 0.537285)
  4 by 2 by 1 MPI processor grid
create_atoms	1 box
Created 100 atoms
  Time spent = 0.000738747 secs
mass		1 1.0

pair_style	lj/cut 2.5
pair_coeff	1 1 1.0 1.0 2.5
pair_modify     shift yes

neighbor	0.3 bin
neigh_modify	delay 0 every 1 check yes

variable        e equal pe

# run 0 to get energy of perfect lattice
# emin = minimum energy

run             0
WARNING: No fixes defined, atoms won't move (../verlet.cpp:55)
Neighbor list info ...
  update every 1 steps, delay 0 steps, check yes
  max neighbors/atom: 2000, page size: 100000
  master list distance cutoff = 2.8
  ghost atom cutoff = 2.8
  binsize = 1.4, bins = 8 7 1
  1 neighbor lists, perpetual/occasional/extra = 1 0 0
  (1) pair lj/cut, perpetual
      attributes: half, newton on
      pair build: half/bin/atomonly/newton
      stencil: half/bin/2d/newton
      bin: standard
Per MPI rank memory allocation (min/avg/max) = 2.933 | 2.933 | 2.933 Mbytes
Step Temp E_pair E_mol TotEng Press 
       0            0   -2.9871562            0   -2.9871562    5.8100167 
Loop time of 5.87673e-06 on 8 procs for 0 steps with 100 atoms

78.7% CPU use with 8 MPI tasks x no OpenMP threads

MPI task timing breakdown:
Section |  min time  |  avg time  |  max time  |%varavg| %total
---------------------------------------------------------------
Pair    | 0          | 0          | 0          |   0.0 |  0.00
Neigh   | 0          | 0          | 0          |   0.0 |  0.00
Comm    | 0          | 0          | 0          |   0.0 |  0.00
Output  | 0          | 0          | 0          |   0.0 |  0.00
Modify  | 0          | 0          | 0          |   0.0 |  0.00
Other   |            | 5.877e-06  |            |       |100.00

Nlocal:    12.5 ave 13 max 12 min
Histogram: 4 0 0 0 0 0 0 0 0 4
Nghost:    83.5 ave 84 max 83 min
Histogram: 4 0 0 0 0 0 0 0 0 4
Neighs:    112.5 ave 115 max 110 min
Histogram: 2 0 0 0 2 0 2 0 0 2

Total # of neighbors = 900
Ave neighs/atom = 9
Neighbor list builds = 0
Dangerous builds = 0
variable        emin equal $e
variable        emin equal -2.98715616447944

# disorder the system
# estart = initial energy

variable        x atom x+v_deltaperturb*random(-1.0,1.0,${seed})
variable        x atom x+v_deltaperturb*random(-1.0,1.0,582783)
variable        y atom y+v_deltaperturb*random(-1.0,1.0,${seed})
variable        y atom y+v_deltaperturb*random(-1.0,1.0,582783)

set             group all x v_x
  100 settings made for x
set             group all y v_y
  100 settings made for y

#dump		1 all atom 25 dump.mc

#dump		2 all image 25 image.*.jpg type type #		zoom 1.6 adiam 1.0
#dump_modify	2 pad 5

#dump		3 all movie 25 movie.mpg type type #		zoom 1.6 adiam 1.0
#dump_modify	3 pad 5

variable        elast equal $e
variable        elast equal -2.98715616447944
thermo_style    custom step v_emin v_elast pe

run             0
WARNING: No fixes defined, atoms won't move (../verlet.cpp:55)
Per MPI rank memory allocation (min/avg/max) = 2.933 | 2.933 | 2.933 Mbytes
Step v_emin v_elast PotEng 
       0   -2.9871562   -2.9871562    19.199781 
Loop time of 5.16124e-06 on 8 procs for 0 steps with 100 atoms

65.4% CPU use with 8 MPI tasks x no OpenMP threads

MPI task timing breakdown:
Section |  min time  |  avg time  |  max time  |%varavg| %total
---------------------------------------------------------------
Pair    | 0          | 0          | 0          |   0.0 |  0.00
Neigh   | 0          | 0          | 0          |   0.0 |  0.00
Comm    | 0          | 0          | 0          |   0.0 |  0.00
Output  | 0          | 0          | 0          |   0.0 |  0.00
Modify  | 0          | 0          | 0          |   0.0 |  0.00
Other   |            | 5.161e-06  |            |       |100.00

Nlocal:    12.5 ave 14 max 11 min
Histogram: 1 0 0 3 0 0 3 0 0 1
Nghost:    73 ave 75 max 70 min
Histogram: 1 0 0 0 2 0 2 0 1 2
Neighs:    141 ave 159 max 123 min
Histogram: 1 1 1 1 0 0 1 1 1 1

Total # of neighbors = 1128
Ave neighs/atom = 11.28
Neighbor list builds = 0
Dangerous builds = 0

variable        estart equal $e
variable        estart equal 19.1997808254901
variable        elast equal $e
variable        elast equal 19.1997808254901

# loop over Monte Carlo moves

variable        naccept equal 0
variable        increment equal v_naccept+1
variable        irandom equal floor(atoms*random(0.0,1.0,${seed})+1)
variable        irandom equal floor(atoms*random(0.0,1.0,582783)+1)
variable        rn equal random(0.0,1.0,${seed})
variable        rn equal random(0.0,1.0,582783)
variable        boltzfactor equal "exp(atoms*(v_elast - v_e) / v_kT)"
variable        xnew equal x[v_i]+v_deltamove*random(-1.0,1.0,${seed})
variable        xnew equal x[v_i]+v_deltamove*random(-1.0,1.0,582783)
variable        ynew equal y[v_i]+v_deltamove*random(-1.0,1.0,${seed})
variable        ynew equal y[v_i]+v_deltamove*random(-1.0,1.0,582783)
variable        xi equal x[v_i]
variable        yi equal y[v_i]

label           loop

variable        i equal ${irandom}
variable        i equal 67

variable        x0 equal ${xi}
variable        x0 equal 5.84759294946185
variable        y0 equal ${yi}
variable        y0 equal 6.37423569694987

set             atom $i x ${xnew}
set             atom 67 x ${xnew}
set             atom 67 x 5.87776957709781
  1 settings made for x
set             atom $i y ${ynew}
set             atom 67 y ${ynew}
set             atom 67 y 6.28678872124186
  1 settings made for y

run             1 pre no post no
Step v_emin v_elast PotEng 
       0   -2.9871562    19.199781    19.199781 
       1   -2.9871562    19.199781    19.396074 
Loop time of 0.000102554 on 8 procs for 1 steps with 100 atoms


if              "$e <= ${elast}" then                   "variable elast equal $e"                   "variable naccept equal ${increment}"                 elif "${rn} <= ${boltzfactor}"                   "variable elast equal $e"                   "variable naccept equal ${increment}"                 else                   "set atom $i x ${x0}"                   "set atom $i y ${y0}"
set atom $i x ${x0}
set atom 67 x ${x0}
set atom 67 x 5.84759294946185
  1 settings made for x
set atom $i y ${y0}
set atom 67 y ${y0}
set atom 67 y 6.37423569694987
  1 settings made for y

next            iter
jump            SELF loop

variable        i equal ${irandom}
variable        i equal 16

variable        x0 equal ${xi}
variable        x0 equal 10.5720709880047
variable        y0 equal ${yi}
variable        y0 equal 5.55054221098619

set             atom $i x ${xnew}
set             atom 16 x ${xnew}
set             atom 16 x 10.6657763560467
  1 settings made for x
set             atom $i y ${ynew}
set             atom 16 y ${ynew}
set             atom 16 y 5.54022269194323
  1 settings made for y

run             1 pre no post no
Step v_emin v_elast PotEng 
       1   -2.9871562    19.199781    19.396074 
       2   -2.9871562    19.199781    18.841843 
Loop time of 5.67719e-05 on 8 procs for 1 steps with 100 atoms


if              "$e <= ${elast}" then                   "variable elast equal $e"                   "variable naccept equal ${increment}"                 elif "${rn} <= ${boltzfactor}"                   "variable elast equal $e"                   "variable naccept equal ${increment}"                 else                   "set atom $i x ${x0}"                   "set atom $i y ${y0}"
variable elast equal $e
variable elast equal 18.8418429588543
variable naccept equal ${increment}
variable naccept equal 1

next            iter
jump            SELF loop

variable        i equal ${irandom}
variable        i equal 22

variable        x0 equal ${xi}
variable        x0 equal 0.459052677551175
variable        y0 equal ${yi}
variable        y0 equal 8.41986581005153

set             atom $i x ${xnew}
set             atom 22 x ${xnew}
set             atom 22 x 0.461557538906003
  1 settings made for x
set             atom $i y ${ynew}
set             atom 22 y ${ynew}
set             atom 22 y 8.46209968246516
  1 settings made for y

run             1 pre no post no
Step v_emin v_elast PotEng 
       2   -2.9871562    18.841843    18.841843 
       3   -2.9871562    18.841843     18.99023 
Loop time of 5.62945e-05 on 8 procs for 1 steps with 100 atoms


if              "$e <= ${elast}" then                   "variable elast equal $e"                   "variable naccept equal ${increment}"                 elif "${rn} <= ${boltzfactor}"                   "variable elast equal $e"                   "variable naccept equal ${increment}"                 else                   "set atom $i x ${x0}"                   "set atom $i y ${y0}"
set atom $i x ${x0}
set atom 22 x ${x0}
set atom 22 x 0.459052677551175
  1 settings made for x
set atom $i y ${y0}
set atom 22 y ${y0}
set atom 22 y 8.41986581005153
  1 settings made for y

next            iter
jump            SELF loop

variable        i equal ${irandom}
variable        i equal 37

variable        x0 equal ${xi}
variable        x0 equal 4.4443687566063
variable        y0 equal ${yi}
variable        y0 equal 3.69860313696992

set             atom $i x ${xnew}
set             atom 37 x ${xnew}
set             atom 37 x 4.37775198300096
  1 settings made for x
set             atom $i y ${ynew}
set             atom 37 y ${ynew}
set             atom 37 y 3.66390537781846
  1 settings made for y

run             1 pre no post no
Step v_emin v_elast PotEng 
       3   -2.9871562    18.841843     18.99023 
       4   -2.9871562    18.841843    18.807209 
Loop time of 5.4267e-05 on 8 procs for 1 steps with 100 atoms


if              "$e <= ${elast}" then                   "variable elast equal $e"                   "variable naccept equal ${increment}"                 elif "${rn} <= ${boltzfactor}"                   "variable elast equal $e"                   "variable naccept equal ${increment}"                 else                   "set atom $i x ${x0}"                   "set atom $i y ${y0}"
variable elast equal $e
variable elast equal 18.8072088064515
variable naccept equal ${increment}
variable naccept equal 2

next            iter
jump            SELF loop

variable        i equal ${irandom}
variable        i equal 10

variable        x0 equal ${xi}
variable        x0 equal 2.23360760847435
variable        y0 equal ${yi}
variable        y0 equal 2.01121212623185

set             atom $i x ${xnew}
set             atom 10 x ${xnew}
set             atom 10 x 2.17734692732201
  1 settings made for x
set             atom $i y ${ynew}
set             atom 10 y ${ynew}
set             atom 10 y 1.9904889740712
  1 settings made for y

run             1 pre no post no
Step v_emin v_elast PotEng 
       4   -2.9871562    18.807209    18.807209 
       5   -2.9871562    18.807209    18.706224 
Loop time of 5.39581e-05 on 8 procs for 1 steps with 100 atoms


if              "$e <= ${elast}" then                   "variable elast equal $e"                   "variable naccept equal ${increment}"                 elif "${rn} <= ${boltzfactor}"                   "variable elast equal $e"                   "variable naccept equal ${increment}"                 else                   "set atom $i x ${x0}"                   "set atom $i y ${y0}"
variable elast equal $e
variable elast equal 18.7062241272999
variable naccept equal ${increment}
variable naccept equal 3

next            iter
jump            SELF loop

variable        i equal ${irandom}
variable        i equal 43

variable        x0 equal ${xi}
variable        x0 equal 3.87135564604884
variable        y0 equal ${yi}
variable        y0 equal 6.55566048161021

set             atom $i x ${xnew}
set             atom 43 x ${xnew}
set             atom 43 x 3.80586687842494
  1 settings made for x
set             atom $i y ${ynew}
set             atom 43 y ${ynew}
set             atom 43 y 6.61844325796595
  1 settings made for y

run             1 pre no post no
Step v_emin v_elast PotEng 
       5   -2.9871562    18.706224    18.706224 
       6   -2.9871562    18.706224    18.711661 
Loop time of 5.28488e-05 on 8 procs for 1 steps with 100 atoms


if              "$e <= ${elast}" then                   "variable elast equal $e"                   "variable naccept equal ${increment}"                 elif "${rn} <= ${boltzfactor}"                   "variable elast equal $e"                   "variable naccept equal ${increment}"                 else                   "set atom $i x ${x0}"                   "set atom $i y ${y0}"
set atom $i x ${x0}
set atom 43 x ${x0}
set atom 43 x 3.87135564604884
  1 settings made for x
set atom $i y ${y0}
set atom 43 y ${y0}
set atom 43 y 6.55566048161021
  1 settings made for y

next            iter
jump            SELF loop

variable        i equal ${irandom}
variable        i equal 96

variable        x0 equal ${xi}
variable        x0 equal 8.06897214053966
variable        y0 equal ${yi}
variable        y0 equal 8.19967323459681

set             atom $i x ${xnew}
set             atom 96 x ${xnew}
set             atom 96 x 8.14397334455349
  1 settings made for x
set             atom $i y ${ynew}
set             atom 96 y ${ynew}
set             atom 96 y 8.22307642616328
  1 settings made for y

run             1 pre no post no
Step v_emin v_elast PotEng 
       6   -2.9871562    18.706224    18.711661 
       7   -2.9871562    18.706224     18.77557 
Loop time of 5.26199e-05 on 8 procs for 1 steps with 100 atoms


if              "$e <= ${elast}" then                   "variable elast equal $e"                   "variable naccept equal ${increment}"                 elif "${rn} <= ${boltzfactor}"                   "variable elast equal $e"                   "variable naccept equal ${increment}"                 else                   "set atom $i x ${x0}"                   "set atom $i y ${y0}"
set atom $i x ${x0}
set atom 96 x ${x0}
set atom 96 x 8.06897214053966
  1 settings made for x
set atom $i y ${y0}
set atom 96 y ${y0}
set atom 96 y 8.19967323459681
  1 settings made for y

next            iter
jump            SELF loop

variable        i equal ${irandom}
variable        i equal 71

variable        x0 equal ${xi}
variable        x0 equal 5.50663187900449
variable        y0 equal ${yi}
variable        y0 equal 7.56962687101626

set             atom $i x ${xnew}
set             atom 71 x ${xnew}
set             atom 71 x 5.57113583484555
  1 settings made for x
set             atom $i y ${ynew}
set             atom 71 y ${ynew}
set             atom 71 y 7.55018040266299
  1 settings made for y

run             1 pre no post no
Step v_emin v_elast PotEng 
       7   -2.9871562    18.706224     18.77557 
       8   -2.9871562    18.706224    18.738494 
Loop time of 5.31813e-05 on 8 procs for 1 steps with 100 atoms


if              "$e <= ${elast}" then                   "variable elast equal $e"                   "variable naccept equal ${increment}"                 elif "${rn} <= ${boltzfactor}"                   "variable elast equal $e"                   "variable naccept equal ${increment}"                 else                   "set atom $i x ${x0}"                   "set atom $i y ${y0}"
set atom $i x ${x0}
set atom 71 x ${x0}
set atom 71 x 5.50663187900449
  1 settings made for x
set atom $i y ${y0}
set atom 71 y ${y0}
set atom 71 y 7.56962687101626
  1 settings made for y

next            iter
jump            SELF loop

variable        i equal ${irandom}
variable        i equal 91

variable        x0 equal ${xi}
variable        x0 equal 8.21418936847545
variable        y0 equal ${yi}
variable        y0 equal 6.3494564248704

set             atom $i x ${xnew}
set             atom 91 x ${xnew}
set             atom 91 x 8.29130173324444
  1 settings made for x
set             atom $i y ${ynew}
set             atom 91 y ${ynew}
set             atom 91 y 6.39447173611155
  1 settings made for y

run             1 pre no post no
Step v_emin v_elast PotEng 
       8   -2.9871562    18.706224    18.738494 
       9   -2.9871562    18.706224    21.664238 
Loop time of 5.47835e-05 on 8 procs for 1 steps with 100 atoms


if              "$e <= ${elast}" then                   "variable elast equal $e"                   "variable naccept equal ${increment}"                 elif "${rn} <= ${boltzfactor}"                   "variable elast equal $e"                   "variable naccept equal ${increment}"                 else                   "set atom $i x ${x0}"                   "set atom $i y ${y0}"
set atom $i x ${x0}
set atom 91 x ${x0}
set atom 91 x 8.21418936847545
  1 settings made for x
set atom $i y ${y0}
set atom 91 y ${y0}
set atom 91 y 6.3494564248704
  1 settings made for y

next            iter
jump            SELF loop

variable        i equal ${irandom}
variable        i equal 76

variable        x0 equal ${xi}
variable        x0 equal 7.94018488525249
variable        y0 equal ${yi}
variable        y0 equal 0.86350280832085

set             atom $i x ${xnew}
set             atom 76 x ${xnew}
set             atom 76 x 7.88638265727855
  1 settings made for x
set             atom $i y ${ynew}
set             atom 76 y ${ynew}
set             atom 76 y 0.805514188516467
  1 settings made for y

run             1 pre no post no
Step v_emin v_elast PotEng 
       9   -2.9871562    18.706224    21.664238 
      10   -2.9871562    18.706224    18.851438 
Loop time of 5.19004e-05 on 8 procs for 1 steps with 100 atoms


if              "$e <= ${elast}" then                   "variable elast equal $e"                   "variable naccept equal ${increment}"                 elif "${rn} <= ${boltzfactor}"                   "variable elast equal $e"                   "variable naccept equal ${increment}"                 else                   "set atom $i x ${x0}"                   "set atom $i y ${y0}"
set atom $i x ${x0}
set atom 76 x ${x0}
set atom 76 x 7.94018488525249
  1 settings made for x
set atom $i y ${y0}
set atom 76 y ${y0}
set atom 76 y 0.86350280832085
  1 settings made for y

next            iter
jump            SELF loop

variable        i equal ${irandom}
variable        i equal 98

variable        x0 equal ${xi}
variable        x0 equal 9.16834633070976
variable        y0 equal ${yi}
variable        y0 equal 8.39832626499232

set             atom $i x ${xnew}
set             atom 98 x ${xnew}
set             atom 98 x 9.07404753882439
  1 settings made for x
set             atom $i y ${ynew}
set             atom 98 y ${ynew}
set             atom 98 y 8.38382266677912
  1 settings made for y

run             1 pre no post no
Step v_emin v_elast PotEng 
      10   -2.9871562    18.706224    18.851438 
      11   -2.9871562    18.706224     18.67662 
Loop time of 5.34207e-05 on 8 procs for 1 steps with 100 atoms


if              "$e <= ${elast}" then                   "variable elast equal $e"                   "variable naccept equal ${increment}"                 elif "${rn} <= ${boltzfactor}"                   "variable elast equal $e"                   "variable naccept equal ${increment}"                 else                   "set atom $i x ${x0}"                   "set atom $i y ${y0}"
variable elast equal $e
variable elast equal 18.6766202698886
variable naccept equal ${increment}
variable naccept equal 4

next            iter
jump            SELF loop

variable        i equal ${irandom}
variable        i equal 31

variable        x0 equal ${xi}
variable        x0 equal 2.59946205814314
variable        y0 equal ${yi}
variable        y0 equal 2.77839184972146

set             atom $i x ${xnew}
set             atom 31 x ${xnew}
set             atom 31 x 2.52578410108519
  1 settings made for x
set             atom $i y ${ynew}
set             atom 31 y ${ynew}
set             atom 31 y 2.79605212184289
  1 settings made for y

run             1 pre no post no
Step v_emin v_elast PotEng 
      11   -2.9871562     18.67662     18.67662 
      12   -2.9871562     18.67662    18.727534 
Loop time of 5.21573e-05 on 8 procs for 1 steps with 100 atoms


if              "$e <= ${elast}" then                   "variable elast equal $e"                   "variable naccept equal ${increment}"                 elif "${rn} <= ${boltzfactor}"                   "variable elast equal $e"                   "variable naccept equal ${increment}"                 else                   "set atom $i x ${x0}"                   "set atom $i y ${y0}"
set atom $i x ${x0}
set atom 31 x ${x0}
set atom 31 x 2.59946205814314
  1 settings made for x
set atom $i y ${y0}
set atom 31 y ${y0}
set atom 31 y 2.77839184972146
  1 settings made for y

next            iter
jump            SELF loop

variable        i equal ${irandom}
variable        i equal 46

variable        x0 equal ${xi}
variable        x0 equal 2.71520588596297
variable        y0 equal ${yi}
variable        y0 equal 8.50687137760218

set             atom $i x ${xnew}
set             atom 46 x ${xnew}
set             atom 46 x 2.63986052473021
  1 settings made for x
set             atom $i y ${ynew}
set             atom 46 y ${ynew}
set             atom 46 y 8.4647656074911
  1 settings made for y

run             1 pre no post no
Step v_emin v_elast PotEng 
      12   -2.9871562     18.67662    18.727534 
      13   -2.9871562     18.67662    18.686333 
Loop time of 5.16813e-05 on 8 procs for 1 steps with 100 atoms


if              "$e <= ${elast}" then                   "variable elast equal $e"                   "variable naccept equal ${increment}"                 elif "${rn} <= ${boltzfactor}"                   "variable elast equal $e"                   "variable naccept equal ${increment}"                 else                   "set atom $i x ${x0}"                   "set atom $i y ${y0}"
set atom $i x ${x0}
set atom 46 x ${x0}
set atom 46 x 2.71520588596297
  1 settings made for x
set atom $i y ${y0}
set atom 46 y ${y0}
set atom 46 y 8.50687137760218
  1 settings made for y

next            iter
jump            SELF loop

variable        i equal ${irandom}
variable        i equal 43

variable        x0 equal ${xi}
variable        x0 equal 3.87135564604884
variable        y0 equal ${yi}
variable        y0 equal 6.55566048161021

set             atom $i x ${xnew}
set             atom 43 x ${xnew}
set             atom 43 x 3.92992097655421
  1 settings made for x
set             atom $i y ${ynew}
set             atom 43 y ${ynew}
set             atom 43 y 6.6204145981454
  1 settings made for y

run             1 pre no post no
Step v_emin v_elast PotEng 
      13   -2.9871562     18.67662    18.686333 
      14   -2.9871562     18.67662    18.848387 
Loop time of 4.58411e-05 on 8 procs for 1 steps with 100 atoms


if              "$e <= ${elast}" then                   "variable elast equal $e"                   "variable naccept equal ${increment}"                 elif "${rn} <= ${boltzfactor}"                   "variable elast equal $e"                   "variable naccept equal ${increment}"                 else                   "set atom $i x ${x0}"                   "set atom $i y ${y0}"
set atom $i x ${x0}
set atom 43 x ${x0}
set atom 43 x 3.87135564604884
  1 settings made for x
set atom $i y ${y0}
set atom 43 y ${y0}
set atom 43 y 6.55566048161021
  1 settings made for y

next            iter
jump            SELF loop

variable        i equal ${irandom}
variable        i equal 17

variable        x0 equal ${xi}
variable        x0 equal 0.352515979209806
variable        y0 equal ${yi}
variable        y0 equal 6.55085324779978

set             atom $i x ${xnew}
set             atom 17 x ${xnew}
set             atom 17 x 0.387799485126401
  1 settings made for x
set             atom $i y ${ynew}
set             atom 17 y ${ynew}
set             atom 17 y 6.49517389074793
  1 settings made for y

run             1 pre no post no
Step v_emin v_elast PotEng 
      14   -2.9871562     18.67662    18.848387 
      15   -2.9871562     18.67662    18.649875 
Loop time of 4.65914e-05 on 8 procs for 1 steps with 100 atoms


if              "$e <= ${elast}" then                   "variable elast equal $e"                   "variable naccept equal ${increment}"                 elif "${rn} <= ${boltzfactor}"                   "variable elast equal $e"                   "variable naccept equal ${increment}"                 else                   "set atom $i x ${x0}"                   "set atom $i y ${y0}"
variable elast equal $e
variable elast equal 18.6498751248516
variable naccept equal ${increment}
variable naccept equal 5

next            iter
jump            SELF loop

variable        i equal ${irandom}
variable        i equal 74

variable        x0 equal ${xi}
variable        x0 equal 6.97526077309295
variable        y0 equal ${yi}
variable        y0 equal 8.23448504127559

set             atom $i x ${xnew}
set             atom 74 x ${xnew}
set             atom 74 x 6.88670579472229
  1 settings made for x
set             atom $i y ${ynew}
set             atom 74 y ${ynew}
set             atom 74 y 8.19218952573832
  1 settings made for y

run             1 pre no post no
Step v_emin v_elast PotEng 
      15   -2.9871562    18.649875    18.649875 
      16   -2.9871562    18.649875    18.816118 
Loop time of 4.58894e-05 on 8 procs for 1 steps with 100 atoms


if              "$e <= ${elast}" then                   "variable elast equal $e"                   "variable naccept equal ${increment}"                 elif "${rn} <= ${boltzfactor}"                   "variable elast equal $e"                   "variable naccept equal ${increment}"                 else                   "set atom $i x ${x0}"                   "set atom $i y ${y0}"
set atom $i x ${x0}
set atom 74 x ${x0}
set atom 74 x 6.97526077309295
  1 settings made for x
set atom $i y ${y0}
set atom 74 y ${y0}
set atom 74 y 8.23448504127559
  1 settings made for y

next            iter
jump            SELF loop

variable        i equal ${irandom}
variable        i equal 70

variable        x0 equal ${xi}
variable        x0 equal 7.55075164873373
variable        y0 equal ${yi}
variable        y0 equal 5.74215760176378

set             atom $i x ${xnew}
set             atom 70 x ${xnew}
set             atom 70 x 7.46315569717657
  1 settings made for x
set             atom $i y ${ynew}
set             atom 70 y ${ynew}
set             atom 70 y 5.81912440006929
  1 settings made for y

run             1 pre no post no
Step v_emin v_elast PotEng 
      16   -2.9871562    18.649875    18.816118 
      17   -2.9871562    18.649875    19.240936 
Loop time of 4.36005e-05 on 8 procs for 1 steps with 100 atoms


if              "$e <= ${elast}" then                   "variable elast equal $e"                   "variable naccept equal ${increment}"                 elif "${rn} <= ${boltzfactor}"                   "variable elast equal $e"                   "variable naccept equal ${increment}"                 else                   "set atom $i x ${x0}"                   "set atom $i y ${y0}"
set atom $i x ${x0}
set atom 70 x ${x0}
set atom 70 x 7.55075164873373
  1 settings made for x
set atom $i y ${y0}
set atom 70 y ${y0}
set atom 70 y 5.74215760176378
  1 settings made for y

next            iter
jump            SELF loop

variable        i equal ${irandom}
variable        i equal 46

variable        x0 equal ${xi}
variable        x0 equal 2.71520588596297
variable        y0 equal ${yi}
variable        y0 equal 8.50687137760218

set             atom $i x ${xnew}
set             atom 46 x ${xnew}
set             atom 46 x 2.75069267948104
  1 settings made for x
set             atom $i y ${ynew}
set             atom 46 y ${ynew}
set             atom 46 y 8.52270703233774
  1 settings made for y

run             1 pre no post no
Step v_emin v_elast PotEng 
      17   -2.9871562    18.649875    19.240936 
      18   -2.9871562    18.649875    18.657284 
Loop time of 4.39049e-05 on 8 procs for 1 steps with 100 atoms


if              "$e <= ${elast}" then                   "variable elast equal $e"                   "variable naccept equal ${increment}"                 elif "${rn} <= ${boltzfactor}"                   "variable elast equal $e"                   "variable naccept equal ${increment}"                 else                   "set atom $i x ${x0}"                   "set atom $i y ${y0}"
set atom $i x ${x0}
set atom 46 x ${x0}
set atom 46 x 2.71520588596297
  1 settings made for x
set atom $i y ${y0}
set atom 46 y ${y0}
set atom 46 y 8.50687137760218
  1 settings made for y

next            iter
jump            SELF loop

variable        i equal ${irandom}
variable        i equal 71

variable        x0 equal ${xi}
variable        x0 equal 5.50663187900449
variable        y0 equal ${yi}
variable        y0 equal 7.56962687101626

set             atom $i x ${xnew}
set             atom 71 x ${xnew}
set             atom 71 x 5.59114939371015
  1 settings made for x
set             atom $i y ${ynew}
set             atom 71 y ${ynew}
set             atom 71 y 7.6569728287723
  1 settings made for y

run             1 pre no post no
Step v_emin v_elast PotEng 
      18   -2.9871562    18.649875    18.657284 
      19   -2.9871562    18.649875    18.967603 
Loop time of 4.18166e-05 on 8 procs for 1 steps with 100 atoms


if              "$e <= ${elast}" then                   "variable elast equal $e"                   "variable naccept equal ${increment}"                 elif "${rn} <= ${boltzfactor}"                   "variable elast equal $e"                   "variable naccept equal ${increment}"                 else                   "set atom $i x ${x0}"                   "set atom $i y ${y0}"
set atom $i x ${x0}
set atom 71 x ${x0}
set atom 71 x 5.50663187900449
  1 settings made for x
set atom $i y ${y0}
set atom 71 y ${y0}
set atom 71 y 7.56962687101626
  1 settings made for y

next            iter
jump            SELF loop

variable        i equal ${irandom}
variable        i equal 97

variable        x0 equal ${xi}
variable        x0 equal 8.6272473827881
variable        y0 equal ${yi}
variable        y0 equal 7.54194511499667

set             atom $i x ${xnew}
set             atom 97 x ${xnew}
set             atom 97 x 8.67699492135469
  1 settings made for x
set             atom $i y ${ynew}
set             atom 97 y ${ynew}
set             atom 97 y 7.62279662218356
  1 settings made for y

run             1 pre no post no
Step v_emin v_elast PotEng 
      19   -2.9871562    18.649875    18.967603 
      20   -2.9871562    18.649875    18.869374 
Loop time of 4.35116e-05 on 8 procs for 1 steps with 100 atoms


if              "$e <= ${elast}" then                   "variable elast equal $e"                   "variable naccept equal ${increment}"                 elif "${rn} <= ${boltzfactor}"                   "variable elast equal $e"                   "variable naccept equal ${increment}"                 else                   "set atom $i x ${x0}"                   "set atom $i y ${y0}"
set atom $i x ${x0}
set atom 97 x ${x0}
set atom 97 x 8.6272473827881
  1 settings made for x
set atom $i y ${y0}
set atom 97 y ${y0}
set atom 97 y 7.54194511499667
  1 settings made for y

next            iter
jump            SELF loop

variable        i equal ${irandom}
variable        i equal 39

variable        x0 equal ${xi}
variable        x0 equal 3.72306582251674
variable        y0 equal ${yi}
variable        y0 equal 4.47625692242548

set             atom $i x ${xnew}
set             atom 39 x ${xnew}
set             atom 39 x 3.6856681994546
  1 settings made for x
set             atom $i y ${ynew}
set             atom 39 y ${ynew}
set             atom 39 y 4.43579470271036
  1 settings made for y

run             1 pre no post no
Step v_emin v_elast PotEng 
      20   -2.9871562    18.649875    18.869374 
      21   -2.9871562    18.649875    18.660467 
Loop time of 4.29307e-05 on 8 procs for 1 steps with 100 atoms


if              "$e <= ${elast}" then                   "variable elast equal $e"                   "variable naccept equal ${increment}"                 elif "${rn} <= ${boltzfactor}"                   "variable elast equal $e"                   "variable naccept equal ${increment}"                 else                   "set atom $i x ${x0}"                   "set atom $i y ${y0}"
set atom $i x ${x0}
set atom 39 x ${x0}
set atom 39 x 3.72306582251674
  1 settings made for x
set atom $i y ${y0}
set atom 39 y ${y0}
set atom 39 y 4.47625692242548
  1 settings made for y

next            iter
jump            SELF loop

variable        i equal ${irandom}
variable        i equal 86

variable        x0 equal ${xi}
variable        x0 equal 8.45465552964632
variable        y0 equal ${yi}
variable        y0 equal 3.67120390696656

set             atom $i x ${xnew}
set             atom 86 x ${xnew}
set             atom 86 x 8.36835785069887
  1 settings made for x
set             atom $i y ${ynew}
set             atom 86 y ${ynew}
set             atom 86 y 3.69994463486802
  1 settings made for y

run             1 pre no post no
Step v_emin v_elast PotEng 
      21   -2.9871562    18.649875    18.660467 
      22   -2.9871562    18.649875    18.760057 
Loop time of 4.29408e-05 on 8 procs for 1 steps with 100 atoms


if              "$e <= ${elast}" then                   "variable elast equal $e"                   "variable naccept equal ${increment}"                 elif "${rn} <= ${boltzfactor}"                   "variable elast equal $e"                   "variable naccept equal ${increment}"                 else                   "set atom $i x ${x0}"                   "set atom $i y ${y0}"
set atom $i x ${x0}
set atom 86 x ${x0}
set atom 86 x 8.45465552964632
  1 settings made for x
set atom $i y ${y0}
set atom 86 y ${y0}
set atom 86 y 3.67120390696656
  1 settings made for y

next            iter
jump            SELF loop

variable        i equal ${irandom}
variable        i equal 72

variable        x0 equal ${xi}
variable        x0 equal 6.04620492417804
variable        y0 equal ${yi}
variable        y0 equal 8.33303295291957

set             atom $i x ${xnew}
set             atom 72 x ${xnew}
set             atom 72 x 6.02091737945072
  1 settings made for x
set             atom $i y ${ynew}
set             atom 72 y ${ynew}
set             atom 72 y 8.42499875940379
  1 settings made for y

run             1 pre no post no
Step v_emin v_elast PotEng 
      22   -2.9871562    18.649875    18.760057 
      23   -2.9871562    18.649875    18.785572 
Loop time of 4.30196e-05 on 8 procs for 1 steps with 100 atoms


if              "$e <= ${elast}" then                   "variable elast equal $e"                   "variable naccept equal ${increment}"                 elif "${rn} <= ${boltzfactor}"                   "variable elast equal $e"                   "variable naccept equal ${increment}"                 else                   "set atom $i x ${x0}"                   "set atom $i y ${y0}"
set atom $i x ${x0}
set atom 72 x ${x0}
set atom 72 x 6.04620492417804
  1 settings made for x
set atom $i y ${y0}
set atom 72 y ${y0}
set atom 72 y 8.33303295291957
  1 settings made for y

next            iter
jump            SELF loop

variable        i equal ${irandom}
variable        i equal 71

variable        x0 equal ${xi}
variable        x0 equal 5.50663187900449
variable        y0 equal ${yi}
variable        y0 equal 7.56962687101626

set             atom $i x ${xnew}
set             atom 71 x ${xnew}
set             atom 71 x 5.49776528278257
  1 settings made for x
set             atom $i y ${ynew}
set             atom 71 y ${ynew}
set             atom 71 y 7.4722852620151
  1 settings made for y

run             1 pre no post no
Step v_emin v_elast PotEng 
      23   -2.9871562    18.649875    18.785572 
      24   -2.9871562    18.649875    18.613028 
Loop time of 4.34445e-05 on 8 procs for 1 steps with 100 atoms


if              "$e <= ${elast}" then                   "variable elast equal $e"                   "variable naccept equal ${increment}"                 elif "${rn} <= ${boltzfactor}"                   "variable elast equal $e"                   "variable naccept equal ${increment}"                 else                   "set atom $i x ${x0}"                   "set atom $i y ${y0}"
variable elast equal $e
variable elast equal 18.6130280493567
variable naccept equal ${increment}
variable naccept equal 6

next            iter
jump            SELF loop

variable        i equal ${irandom}
variable        i equal 33

variable        x0 equal ${xi}
variable        x0 equal 3.78632356444484
variable        y0 equal ${yi}
variable        y0 equal 2.7753891822944

set             atom $i x ${xnew}
set             atom 33 x ${xnew}
set             atom 33 x 3.73503010789042
  1 settings made for x
set             atom $i y ${ynew}
set             atom 33 y ${ynew}
set             atom 33 y 2.73983592959741
  1 settings made for y

run             1 pre no post no
Step v_emin v_elast PotEng 
      24   -2.9871562    18.613028    18.613028 
      25   -2.9871562    18.613028     18.64811 
Loop time of 4.25794e-05 on 8 procs for 1 steps with 100 atoms


if              "$e <= ${elast}" then                   "variable elast equal $e"                   "variable naccept equal ${increment}"                 elif "${rn} <= ${boltzfactor}"                   "variable elast equal $e"                   "variable naccept equal ${increment}"                 else                   "set atom $i x ${x0}"                   "set atom $i y ${y0}"
set atom $i x ${x0}
set atom 33 x ${x0}
set atom 33 x 3.78632356444484
  1 settings made for x
set atom $i y ${y0}
set atom 33 y ${y0}
set atom 33 y 2.7753891822944
  1 settings made for y

next            iter
jump            SELF loop

variable        i equal ${irandom}
variable        i equal 54

variable        x0 equal ${xi}
variable        x0 equal 7.04622503796264
variable        y0 equal ${yi}
variable        y0 equal 0.941362734544604

set             atom $i x ${xnew}
set             atom 54 x ${xnew}
set             atom 54 x 7.12667885103866
  1 settings made for x
set             atom $i y ${ynew}
set             atom 54 y ${ynew}
set             atom 54 y 0.93246557306084
  1 settings made for y

run             1 pre no post no
Step v_emin v_elast PotEng 
      25   -2.9871562    18.613028     18.64811 
      26   -2.9871562    18.613028    18.878141 
Loop time of 4.32146e-05 on 8 procs for 1 steps with 100 atoms


if              "$e <= ${elast}" then                   "variable elast equal $e"                   "variable naccept equal ${increment}"                 elif "${rn} <= ${boltzfactor}"                   "variable elast equal $e"                   "variable naccept equal ${increment}"                 else                   "set atom $i x ${x0}"                   "set atom $i y ${y0}"
set atom $i x ${x0}
set atom 54 x ${x0}
set atom 54 x 7.04622503796264
  1 settings made for x
set atom $i y ${y0}
set atom 54 y ${y0}
set atom 54 y 0.941362734544604
  1 settings made for y

next            iter
jump            SELF loop

variable        i equal ${irandom}
variable        i equal 88

variable        x0 equal ${xi}
variable        x0 equal 8.04091423152782
variable        y0 equal ${yi}
variable        y0 equal 4.59223661774561

set             atom $i x ${xnew}
set             atom 88 x ${xnew}
set             atom 88 x 8.0567768156419
  1 settings made for x
set             atom $i y ${ynew}
set             atom 88 y ${ynew}
set             atom 88 y 4.66208653801843
  1 settings made for y

run             1 pre no post no
Step v_emin v_elast PotEng 
      26   -2.9871562    18.613028    18.878141 
      27   -2.9871562    18.613028    18.610122 
Loop time of 4.20566e-05 on 8 procs for 1 steps with 100 atoms


if              "$e <= ${elast}" then                   "variable elast equal $e"                   "variable naccept equal ${increment}"                 elif "${rn} <= ${boltzfactor}"                   "variable elast equal $e"                   "variable naccept equal ${increment}"                 else                   "set atom $i x ${x0}"                   "set atom $i y ${y0}"
variable elast equal $e
variable elast equal 18.6101218871606
variable naccept equal ${increment}
variable naccept equal 7

next            iter
jump            SELF loop

variable        i equal ${irandom}
variable        i equal 41

variable        x0 equal ${xi}
variable        x0 equal 2.72746811111403
variable        y0 equal ${yi}
variable        y0 equal 6.56291543976298

set             atom $i x ${xnew}
set             atom 41 x ${xnew}
set             atom 41 x 2.75894133050871
  1 settings made for x
set             atom $i y ${ynew}
set             atom 41 y ${ynew}
set             atom 41 y 6.50207719341746
  1 settings made for y

run             1 pre no post no
Step v_emin v_elast PotEng 
      27   -2.9871562    18.610122    18.610122 
      28   -2.9871562    18.610122    18.420329 
Loop time of 4.21224e-05 on 8 procs for 1 steps with 100 atoms


if              "$e <= ${elast}" then                   "variable elast equal $e"                   "variable naccept equal ${increment}"                 elif "${rn} <= ${boltzfactor}"                   "variable elast equal $e"                   "variable naccept equal ${increment}"                 else                   "set atom $i x ${x0}"                   "set atom $i y ${y0}"
variable elast equal $e
variable elast equal 18.4203294539541
variable naccept equal ${increment}
variable naccept equal 8

next            iter
jump            SELF loop

variable        i equal ${irandom}
variable        i equal 79

variable        x0 equal ${xi}
variable        x0 equal 9.6955831456053
variable        y0 equal ${yi}
variable        y0 equal 0.0743083238601685

set             atom $i x ${xnew}
set             atom 79 x ${xnew}
set             atom 79 x 9.74719416378614
  1 settings made for x
set             atom $i y ${ynew}
set             atom 79 y ${ynew}
set             atom 79 y 0.025791072845459
  1 settings made for y

run             1 pre no post no
Step v_emin v_elast PotEng 
      28   -2.9871562    18.420329    18.420329 
      29   -2.9871562    18.420329    18.522363 
Loop time of 4.36996e-05 on 8 procs for 1 steps with 100 atoms


if              "$e <= ${elast}" then                   "variable elast equal $e"                   "variable naccept equal ${increment}"                 elif "${rn} <= ${boltzfactor}"                   "variable elast equal $e"                   "variable naccept equal ${increment}"                 else                   "set atom $i x ${x0}"                   "set atom $i y ${y0}"
set atom $i x ${x0}
set atom 79 x ${x0}
set atom 79 x 9.6955831456053
  1 settings made for x
set atom $i y ${y0}
set atom 79 y ${y0}
set atom 79 y 0.0743083238601685
  1 settings made for y

next            iter
jump            SELF loop

variable        i equal ${irandom}
variable        i equal 35

variable        x0 equal ${xi}
variable        x0 equal 4.99504664778052
variable        y0 equal ${yi}
variable        y0 equal 2.96102813454965

set             atom $i x ${xnew}
set             atom 35 x ${xnew}
set             atom 35 x 5.02966773151694
  1 settings made for x
set             atom $i y ${ynew}
set             atom 35 y ${ynew}
set             atom 35 y 2.92187951775888
  1 settings made for y

run             1 pre no post no
Step v_emin v_elast PotEng 
      29   -2.9871562    18.420329    18.522363 
      30   -2.9871562    18.420329    19.150246 
Loop time of 4.2652e-05 on 8 procs for 1 steps with 100 atoms


if              "$e <= ${elast}" then                   "variable elast equal $e"                   "variable naccept equal ${increment}"                 elif "${rn} <= ${boltzfactor}"                   "variable elast equal $e"                   "variable naccept equal ${increment}"                 else                   "set atom $i x ${x0}"                   "set atom $i y ${y0}"
set atom $i x ${x0}
set atom 35 x ${x0}
set atom 35 x 4.99504664778052
  1 settings made for x
set atom $i y ${y0}
set atom 35 y ${y0}
set atom 35 y 2.96102813454965
  1 settings made for y

next            iter
jump            SELF loop

variable        i equal ${irandom}
variable        i equal 55

variable        x0 equal ${xi}
variable        x0 equal 7.56271735269796
variable        y0 equal ${yi}
variable        y0 equal 9.27910173642963

set             atom $i x ${xnew}
set             atom 55 x ${xnew}
set             atom 55 x 7.65711865265142
  1 settings made for x
set             atom $i y ${ynew}
set             atom 55 y ${ynew}
set             atom 55 y 9.35638247239917
  1 settings made for y

run             1 pre no post no
Step v_emin v_elast PotEng 
      30   -2.9871562    18.420329    19.150246 
      31   -2.9871562    18.420329    18.572803 
Loop time of 4.23385e-05 on 8 procs for 1 steps with 100 atoms


if              "$e <= ${elast}" then                   "variable elast equal $e"                   "variable naccept equal ${increment}"                 elif "${rn} <= ${boltzfactor}"                   "variable elast equal $e"                   "variable naccept equal ${increment}"                 else                   "set atom $i x ${x0}"                   "set atom $i y ${y0}"
set atom $i x ${x0}
set atom 55 x ${x0}
set atom 55 x 7.56271735269796
  1 settings made for x
set atom $i y ${y0}
set atom 55 y ${y0}
set atom 55 y 9.27910173642963
  1 settings made for y

next            iter
jump            SELF loop

variable        i equal ${irandom}
variable        i equal 11

variable        x0 equal ${xi}
variable        x0 equal 10.6500851233654
variable        y0 equal ${yi}
variable        y0 equal 3.76922581954133

set             atom $i x ${xnew}
set             atom 11 x ${xnew}
set             atom 11 x 10.6846685488873
  1 settings made for x
set             atom $i y ${ynew}
set             atom 11 y ${ynew}
set             atom 11 y 3.85353443188798
  1 settings made for y

run             1 pre no post no
Step v_emin v_elast PotEng 
      31   -2.9871562    18.420329    18.572803 
      32   -2.9871562    18.420329    18.311191 
Loop time of 4.24476e-05 on 8 procs for 1 steps with 100 atoms


if              "$e <= ${elast}" then                   "variable elast equal $e"                   "variable naccept equal ${increment}"                 elif "${rn} <= ${boltzfactor}"                   "variable elast equal $e"                   "variable naccept equal ${increment}"                 else                   "set atom $i x ${x0}"                   "set atom $i y ${y0}"
variable elast equal $e
variable elast equal 18.3111914717818
variable naccept equal ${increment}
variable naccept equal 9

next            iter
jump            SELF loop

variable        i equal ${irandom}
variable        i equal 4

variable        x0 equal ${xi}
variable        x0 equal 1.74866355538149
variable        y0 equal ${yi}
variable        y0 equal 0.889158554780811

set             atom $i x ${xnew}
set             atom 4 x ${xnew}
set             atom 4 x 1.79875581145068
  1 settings made for x
set             atom $i y ${ynew}
set             atom 4 y ${ynew}
set             atom 4 y 0.852812607992023
  1 settings made for y

run             1 pre no post no
Step v_emin v_elast PotEng 
      32   -2.9871562    18.311191    18.311191 
      33   -2.9871562    18.311191    18.422704 
Loop time of 4.2479e-05 on 8 procs for 1 steps with 100 atoms


if              "$e <= ${elast}" then                   "variable elast equal $e"                   "variable naccept equal ${increment}"                 elif "${rn} <= ${boltzfactor}"                   "variable elast equal $e"                   "variable naccept equal ${increment}"                 else                   "set atom $i x ${x0}"                   "set atom $i y ${y0}"
set atom $i x ${x0}
set atom 4 x ${x0}
set atom 4 x 1.74866355538149
  1 settings made for x
set atom $i y ${y0}
set atom 4 y ${y0}
set atom 4 y 0.889158554780811
  1 settings made for y

next            iter
jump            SELF loop

variable        i equal ${irandom}
variable        i equal 71

variable        x0 equal ${xi}
variable        x0 equal 5.49776528278257
variable        y0 equal ${yi}
variable        y0 equal 7.4722852620151

set             atom $i x ${xnew}
set             atom 71 x ${xnew}
set             atom 71 x 5.56215200820829
  1 settings made for x
set             atom $i y ${ynew}
set             atom 71 y ${ynew}
set             atom 71 y 7.57089860763812
  1 settings made for y

run             1 pre no post no
Step v_emin v_elast PotEng 
      33   -2.9871562    18.311191    18.422704 
      34   -2.9871562    18.311191    18.391774 
Loop time of 4.21684e-05 on 8 procs for 1 steps with 100 atoms


if              "$e <= ${elast}" then                   "variable elast equal $e"                   "variable naccept equal ${increment}"                 elif "${rn} <= ${boltzfactor}"                   "variable elast equal $e"                   "variable naccept equal ${increment}"                 else                   "set atom $i x ${x0}"                   "set atom $i y ${y0}"
set atom $i x ${x0}
set atom 71 x ${x0}
set atom 71 x 5.49776528278257
  1 settings made for x
set atom $i y ${y0}
set atom 71 y ${y0}
set atom 71 y 7.4722852620151
  1 settings made for y

next            iter
jump            SELF loop

variable        i equal ${irandom}
variable        i equal 38

variable        x0 equal ${xi}
variable        x0 equal 2.73131323059035
variable        y0 equal ${yi}
variable        y0 equal 4.67710171097681

set             atom $i x ${xnew}
set             atom 38 x ${xnew}
set             atom 38 x 2.69340100486708
  1 settings made for x
set             atom $i y ${ynew}
set             atom 38 y ${ynew}
set             atom 38 y 4.72826737517282
  1 settings made for y

run             1 pre no post no
Step v_emin v_elast PotEng 
      34   -2.9871562    18.311191    18.391774 
      35   -2.9871562    18.311191    18.372289 
Loop time of 4.20765e-05 on 8 procs for 1 steps with 100 atoms


if              "$e <= ${elast}" then                   "variable elast equal $e"                   "variable naccept equal ${increment}"                 elif "${rn} <= ${boltzfactor}"                   "variable elast equal $e"                   "variable naccept equal ${increment}"                 else                   "set atom $i x ${x0}"                   "set atom $i y ${y0}"
set atom $i x ${x0}
set atom 38 x ${x0}
set atom 38 x 2.73131323059035
  1 settings made for x
set atom $i y ${y0}
set atom 38 y ${y0}
set atom 38 y 4.67710171097681
  1 settings made for y

next            iter
jump            SELF loop

variable        i equal ${irandom}
variable        i equal 22

variable        x0 equal ${xi}
variable        x0 equal 0.459052677551175
variable        y0 equal ${yi}
variable        y0 equal 8.41986581005153

set             atom $i x ${xnew}
set             atom 22 x ${xnew}
set             atom 22 x 0.547714324394132
  1 settings made for x
set             atom $i y ${ynew}
set             atom 22 y ${ynew}
set             atom 22 y 8.39453185714778
  1 settings made for y

run             1 pre no post no
Step v_emin v_elast PotEng 
      35   -2.9871562    18.311191    18.372289 
      36   -2.9871562    18.311191    18.300435 
Loop time of 4.2428e-05 on 8 procs for 1 steps with 100 atoms


if              "$e <= ${elast}" then                   "variable elast equal $e"                   "variable naccept equal ${increment}"                 elif "${rn} <= ${boltzfactor}"                   "variable elast equal $e"                   "variable naccept equal ${increment}"                 else                   "set atom $i x ${x0}"                   "set atom $i y ${y0}"
variable elast equal $e
variable elast equal 18.3004351286541
variable naccept equal ${increment}
variable naccept equal 10

next            iter
jump            SELF loop

variable        i equal ${irandom}
variable        i equal 80

variable        x0 equal ${xi}
variable        x0 equal 10.1922400359174
variable        y0 equal ${yi}
variable        y0 equal 0.954647608507007

set             atom $i x ${xnew}
set             atom 80 x ${xnew}
set             atom 80 x 10.1027207259198
  1 settings made for x
set             atom $i y ${ynew}
set             atom 80 y ${ynew}
set             atom 80 y 0.928481574762195
  1 settings made for y

run             1 pre no post no
Step v_emin v_elast PotEng 
      36   -2.9871562    18.300435    18.300435 
      37   -2.9871562    18.300435    18.373732 
Loop time of 4.15127e-05 on 8 procs for 1 steps with 100 atoms


if              "$e <= ${elast}" then                   "variable elast equal $e"                   "variable naccept equal ${increment}"                 elif "${rn} <= ${boltzfactor}"                   "variable elast equal $e"                   "variable naccept equal ${increment}"                 else                   "set atom $i x ${x0}"                   "set atom $i y ${y0}"
set atom $i x ${x0}
set atom 80 x ${x0}
set atom 80 x 10.1922400359174
  1 settings made for x
set atom $i y ${y0}
set atom 80 y ${y0}
set atom 80 y 0.954647608507007
  1 settings made for y

next            iter
jump            SELF loop

variable        i equal ${irandom}
variable        i equal 43

variable        x0 equal ${xi}
variable        x0 equal 3.87135564604884
variable        y0 equal ${yi}
variable        y0 equal 6.55566048161021

set             atom $i x ${xnew}
set             atom 43 x ${xnew}
set             atom 43 x 3.9387724093545
  1 settings made for x
set             atom $i y ${ynew}
set             atom 43 y ${ynew}
set             atom 43 y 6.59623282686702
  1 settings made for y

run             1 pre no post no
Step v_emin v_elast PotEng 
      37   -2.9871562    18.300435    18.373732 
      38   -2.9871562    18.300435    18.420573 
Loop time of 4.20142e-05 on 8 procs for 1 steps with 100 atoms


if              "$e <= ${elast}" then                   "variable elast equal $e"                   "variable naccept equal ${increment}"                 elif "${rn} <= ${boltzfactor}"                   "variable elast equal $e"                   "variable naccept equal ${increment}"                 else                   "set atom $i x ${x0}"                   "set atom $i y ${y0}"
set atom $i x ${x0}
set atom 43 x ${x0}
set atom 43 x 3.87135564604884
  1 settings made for x
set atom $i y ${y0}
set atom 43 y ${y0}
set atom 43 y 6.55566048161021
  1 settings made for y

next            iter
jump            SELF loop

variable        i equal ${irandom}
variable        i equal 33

variable        x0 equal ${xi}
variable        x0 equal 3.78632356444484
variable        y0 equal ${yi}
variable        y0 equal 2.7753891822944

set             atom $i x ${xnew}
set             atom 33 x ${xnew}
set             atom 33 x 3.74959222594386
  1 settings made for x
set             atom $i y ${ynew}
set             atom 33 y ${ynew}
set             atom 33 y 2.74107465716699
  1 settings made for y

run             1 pre no post no
Step v_emin v_elast PotEng 
      38   -2.9871562    18.300435    18.420573 
      39   -2.9871562    18.300435    18.328507 
Loop time of 3.99999e-05 on 8 procs for 1 steps with 100 atoms


if              "$e <= ${elast}" then                   "variable elast equal $e"                   "variable naccept equal ${increment}"                 elif "${rn} <= ${boltzfactor}"                   "variable elast equal $e"                   "variable naccept equal ${increment}"                 else                   "set atom $i x ${x0}"                   "set atom $i y ${y0}"
set atom $i x ${x0}
set atom 33 x ${x0}
set atom 33 x 3.78632356444484
  1 settings made for x
set atom $i y ${y0}
set atom 33 y ${y0}
set atom 33 y 2.7753891822944
  1 settings made for y

next            iter
jump            SELF loop

variable        i equal ${irandom}
variable        i equal 53

variable        x0 equal ${xi}
variable        x0 equal 6.36975130557138
variable        y0 equal ${yi}
variable        y0 equal 9.17877667653888

set             atom $i x ${xnew}
set             atom 53 x ${xnew}
set             atom 53 x 6.28843696831781
  1 settings made for x
set             atom $i y ${ynew}
set             atom 53 y ${ynew}
set             atom 53 y 9.26706319558948
  1 settings made for y

run             1 pre no post no
Step v_emin v_elast PotEng 
      39   -2.9871562    18.300435    18.328507 
      40   -2.9871562    18.300435    18.430366 
Loop time of 4.31616e-05 on 8 procs for 1 steps with 100 atoms


if              "$e <= ${elast}" then                   "variable elast equal $e"                   "variable naccept equal ${increment}"                 elif "${rn} <= ${boltzfactor}"                   "variable elast equal $e"                   "variable naccept equal ${increment}"                 else                   "set atom $i x ${x0}"                   "set atom $i y ${y0}"
set atom $i x ${x0}
set atom 53 x ${x0}
set atom 53 x 6.36975130557138
  1 settings made for x
set atom $i y ${y0}
set atom 53 y ${y0}
set atom 53 y 9.17877667653888
  1 settings made for y

next            iter
jump            SELF loop

variable        i equal ${irandom}
variable        i equal 53

variable        x0 equal ${xi}
variable        x0 equal 6.36975130557138
variable        y0 equal ${yi}
variable        y0 equal 9.17877667653888

set             atom $i x ${xnew}
set             atom 53 x ${xnew}
set             atom 53 x 6.32596215724069
  1 settings made for x
set             atom $i y ${ynew}
set             atom 53 y ${ynew}
set             atom 53 y 9.1058867524895
  1 settings made for y

run             1 pre no post no
Step v_emin v_elast PotEng 
      40   -2.9871562    18.300435    18.430366 
      41   -2.9871562    18.300435    18.545586 
Loop time of 4.35642e-05 on 8 procs for 1 steps with 100 atoms


if              "$e <= ${elast}" then                   "variable elast equal $e"                   "variable naccept equal ${increment}"                 elif "${rn} <= ${boltzfactor}"                   "variable elast equal $e"                   "variable naccept equal ${increment}"                 else                   "set atom $i x ${x0}"                   "set atom $i y ${y0}"
set atom $i x ${x0}
set atom 53 x ${x0}
set atom 53 x 6.36975130557138
  1 settings made for x
set atom $i y ${y0}
set atom 53 y ${y0}
set atom 53 y 9.17877667653888
  1 settings made for y

next            iter
jump            SELF loop

variable        i equal ${irandom}
variable        i equal 32

variable        x0 equal ${xi}
variable        x0 equal 3.40708486794987
variable        y0 equal ${yi}
variable        y0 equal 1.88286055705613

set             atom $i x ${xnew}
set             atom 32 x ${xnew}
set             atom 32 x 3.48192629575291
  1 settings made for x
set             atom $i y ${ynew}
set             atom 32 y ${ynew}
set             atom 32 y 1.83248113772935
  1 settings made for y

run             1 pre no post no
Step v_emin v_elast PotEng 
      41   -2.9871562    18.300435    18.545586 
      42   -2.9871562    18.300435    18.315792 
Loop time of 4.26299e-05 on 8 procs for 1 steps with 100 atoms


if              "$e <= ${elast}" then                   "variable elast equal $e"                   "variable naccept equal ${increment}"                 elif "${rn} <= ${boltzfactor}"                   "variable elast equal $e"                   "variable naccept equal ${increment}"                 else                   "set atom $i x ${x0}"                   "set atom $i y ${y0}"
set atom $i x ${x0}
set atom 32 x ${x0}
set atom 32 x 3.40708486794987
  1 settings made for x
set atom $i y ${y0}
set atom 32 y ${y0}
set atom 32 y 1.88286055705613
  1 settings made for y

next            iter
jump            SELF loop

variable        i equal ${irandom}
variable        i equal 7

variable        x0 equal ${xi}
variable        x0 equal 0.516645927825834
variable        y0 equal ${yi}
variable        y0 equal 2.91738013001779

set             atom $i x ${xnew}
set             atom 7 x ${xnew}
set             atom 7 x 0.476136846938993
  1 settings made for x
set             atom $i y ${ynew}
set             atom 7 y ${ynew}
set             atom 7 y 2.85021170350411
  1 settings made for y

run             1 pre no post no
Step v_emin v_elast PotEng 
      42   -2.9871562    18.300435    18.315792 
      43   -2.9871562    18.300435    18.306153 
Loop time of 4.29811e-05 on 8 procs for 1 steps with 100 atoms


if              "$e <= ${elast}" then                   "variable elast equal $e"                   "variable naccept equal ${increment}"                 elif "${rn} <= ${boltzfactor}"                   "variable elast equal $e"                   "variable naccept equal ${increment}"                 else                   "set atom $i x ${x0}"                   "set atom $i y ${y0}"
set atom $i x ${x0}
set atom 7 x ${x0}
set atom 7 x 0.516645927825834
  1 settings made for x
set atom $i y ${y0}
set atom 7 y ${y0}
set atom 7 y 2.91738013001779
  1 settings made for y

next            iter
jump            SELF loop

variable        i equal ${irandom}
variable        i equal 83

variable        x0 equal ${xi}
variable        x0 equal 9.28044283110649
variable        y0 equal ${yi}
variable        y0 equal 2.67400697442391

set             atom $i x ${xnew}
set             atom 83 x ${xnew}
set             atom 83 x 9.25489055830986
  1 settings made for x
set             atom $i y ${ynew}
set             atom 83 y ${ynew}
set             atom 83 y 2.6545912859092
  1 settings made for y

run             1 pre no post no
Step v_emin v_elast PotEng 
      43   -2.9871562    18.300435    18.306153 
      44   -2.9871562    18.300435    18.304138 
Loop time of 4.18745e-05 on 8 procs for 1 steps with 100 atoms


if              "$e <= ${elast}" then                   "variable elast equal $e"                   "variable naccept equal ${increment}"                 elif "${rn} <= ${boltzfactor}"                   "variable elast equal $e"                   "variable naccept equal ${increment}"                 else                   "set atom $i x ${x0}"                   "set atom $i y ${y0}"
set atom $i x ${x0}
set atom 83 x ${x0}
set atom 83 x 9.28044283110649
  1 settings made for x
set atom $i y ${y0}
set atom 83 y ${y0}
set atom 83 y 2.67400697442391
  1 settings made for y

next            iter
jump            SELF loop

variable        i equal ${irandom}
variable        i equal 39

variable        x0 equal ${xi}
variable        x0 equal 3.72306582251674
variable        y0 equal ${yi}
variable        y0 equal 4.47625692242548

set             atom $i x ${xnew}
set             atom 39 x ${xnew}
set             atom 39 x 3.786463814174
  1 settings made for x
set             atom $i y ${ynew}
set             atom 39 y ${ynew}
set             atom 39 y 4.50682874077723
  1 settings made for y

run             1 pre no post no
Step v_emin v_elast PotEng 
      44   -2.9871562    18.300435    18.304138 
      45   -2.9871562    18.300435    18.295616 
Loop time of 4.23001e-05 on 8 procs for 1 steps with 100 atoms


if              "$e <= ${elast}" then                   "variable elast equal $e"                   "variable naccept equal ${increment}"                 elif "${rn} <= ${boltzfactor}"                   "variable elast equal $e"                   "variable naccept equal ${increment}"                 else                   "set atom $i x ${x0}"                   "set atom $i y ${y0}"
variable elast equal $e
variable elast equal 18.2956162371738
variable naccept equal ${increment}
variable naccept equal 11

next            iter
jump            SELF loop

variable        i equal ${irandom}
variable        i equal 58

variable        x0 equal ${xi}
variable        x0 equal 6.40689885138589
variable        y0 equal ${yi}
variable        y0 equal 1.95026988170212

set             atom $i x ${xnew}
set             atom 58 x ${xnew}
set             atom 58 x 6.39329236268121
  1 settings made for x
set             atom $i y ${ynew}
set             atom 58 y ${ynew}
set             atom 58 y 2.02082310102051
  1 settings made for y

run             1 pre no post no
Step v_emin v_elast PotEng 
      45   -2.9871562    18.295616    18.295616 
      46   -2.9871562    18.295616    18.312679 
Loop time of 4.32302e-05 on 8 procs for 1 steps with 100 atoms


if              "$e <= ${elast}" then                   "variable elast equal $e"                   "variable naccept equal ${increment}"                 elif "${rn} <= ${boltzfactor}"                   "variable elast equal $e"                   "variable naccept equal ${increment}"                 else                   "set atom $i x ${x0}"                   "set atom $i y ${y0}"
set atom $i x ${x0}
set atom 58 x ${x0}
set atom 58 x 6.40689885138589
  1 settings made for x
set atom $i y ${y0}
set atom 58 y ${y0}
set atom 58 y 1.95026988170212
  1 settings made for y

next            iter
jump            SELF loop

variable        i equal ${irandom}
variable        i equal 63

variable        x0 equal ${xi}
variable        x0 equal 7.50309296686422
variable        y0 equal ${yi}
variable        y0 equal 3.6237421588434

set             atom $i x ${xnew}
set             atom 63 x ${xnew}
set             atom 63 x 7.45141068537008
  1 settings made for x
set             atom $i y ${ynew}
set             atom 63 y ${ynew}
set             atom 63 y 3.56515824360978
  1 settings made for y

run             1 pre no post no
Step v_emin v_elast PotEng 
      46   -2.9871562    18.295616    18.312679 
      47   -2.9871562    18.295616    18.417204 
Loop time of 4.19218e-05 on 8 procs for 1 steps with 100 atoms


if              "$e <= ${elast}" then                   "variable elast equal $e"                   "variable naccept equal ${increment}"                 elif "${rn} <= ${boltzfactor}"                   "variable elast equal $e"                   "variable naccept equal ${increment}"                 else                   "set atom $i x ${x0}"                   "set atom $i y ${y0}"
set atom $i x ${x0}
set atom 63 x ${x0}
set atom 63 x 7.50309296686422
  1 settings made for x
set atom $i y ${y0}
set atom 63 y ${y0}
set atom 63 y 3.6237421588434
  1 settings made for y

next            iter
jump            SELF loop

variable        i equal ${irandom}
variable        i equal 59

variable        x0 equal ${xi}
variable        x0 equal 6.95917002239868
variable        y0 equal ${yi}
variable        y0 equal 2.87266253205636

set             atom $i x ${xnew}
set             atom 59 x ${xnew}
set             atom 59 x 7.024227991492
  1 settings made for x
set             atom $i y ${ynew}
set             atom 59 y ${ynew}
set             atom 59 y 2.84312890740731
  1 settings made for y

run             1 pre no post no
Step v_emin v_elast PotEng 
      47   -2.9871562    18.295616    18.417204 
      48   -2.9871562    18.295616    18.306537 
Loop time of 4.15095e-05 on 8 procs for 1 steps with 100 atoms


if              "$e <= ${elast}" then                   "variable elast equal $e"                   "variable naccept equal ${increment}"                 elif "${rn} <= ${boltzfactor}"                   "variable elast equal $e"                   "variable naccept equal ${increment}"                 else                   "set atom $i x ${x0}"                   "set atom $i y ${y0}"
set atom $i x ${x0}
set atom 59 x ${x0}
set atom 59 x 6.95917002239868
  1 settings made for x
set atom $i y ${y0}
set atom 59 y ${y0}
set atom 59 y 2.87266253205636
  1 settings made for y

next            iter
jump            SELF loop

variable        i equal ${irandom}
variable        i equal 11

variable        x0 equal ${xi}
variable        x0 equal 10.6846685488873
variable        y0 equal ${yi}
variable        y0 equal 3.85353443188798

set             atom $i x ${xnew}
set             atom 11 x ${xnew}
set             atom 11 x 10.7767231901341
  1 settings made for x
set             atom $i y ${ynew}
set             atom 11 y ${ynew}
set             atom 11 y 3.80844516320359
  1 settings made for y

run             1 pre no post no
Step v_emin v_elast PotEng 
      48   -2.9871562    18.295616    18.306537 
      49   -2.9871562    18.295616    18.147353 
Loop time of 4.17216e-05 on 8 procs for 1 steps with 100 atoms


if              "$e <= ${elast}" then                   "variable elast equal $e"                   "variable naccept equal ${increment}"                 elif "${rn} <= ${boltzfactor}"                   "variable elast equal $e"                   "variable naccept equal ${increment}"                 else                   "set atom $i x ${x0}"                   "set atom $i y ${y0}"
variable elast equal $e
variable elast equal 18.1473530663571
variable naccept equal ${increment}
variable naccept equal 12

next            iter
jump            SELF loop

variable        i equal ${irandom}
variable        i equal 46

variable        x0 equal ${xi}
variable        x0 equal 2.71520588596297
variable        y0 equal ${yi}
variable        y0 equal 8.50687137760218

set             atom $i x ${xnew}
set             atom 46 x ${xnew}
set             atom 46 x 2.77781357963515
  1 settings made for x
set             atom $i y ${ynew}
set             atom 46 y ${ynew}
set             atom 46 y 8.55931589521464
  1 settings made for y

run             1 pre no post no
Step v_emin v_elast PotEng 
      49   -2.9871562    18.147353    18.147353 
      50   -2.9871562    18.147353    18.184788 
Loop time of 4.08497e-05 on 8 procs for 1 steps with 100 atoms


if              "$e <= ${elast}" then                   "variable elast equal $e"                   "variable naccept equal ${increment}"                 elif "${rn} <= ${boltzfactor}"                   "variable elast equal $e"                   "variable naccept equal ${increment}"                 else                   "set atom $i x ${x0}"                   "set atom $i y ${y0}"
set atom $i x ${x0}
set atom 46 x ${x0}
set atom 46 x 2.71520588596297
  1 settings made for x
set atom $i y ${y0}
set atom 46 y ${y0}
set atom 46 y 8.50687137760218
  1 settings made for y

next            iter
jump            SELF loop

variable        i equal ${irandom}
variable        i equal 24

variable        x0 equal ${xi}
variable        x0 equal 1.66628361820956
variable        y0 equal ${yi}
variable        y0 equal 8.33030129589137

set             atom $i x ${xnew}
set             atom 24 x ${xnew}
set             atom 24 x 1.64468072533388
  1 settings made for x
set             atom $i y ${ynew}
set             atom 24 y ${ynew}
set             atom 24 y 8.34522449888286
  1 settings made for y

run             1 pre no post no
Step v_emin v_elast PotEng 
      50   -2.9871562    18.147353    18.184788 
      51   -2.9871562    18.147353    18.147864 
Loop time of 4.28091e-05 on 8 procs for 1 steps with 100 atoms


if              "$e <= ${elast}" then                   "variable elast equal $e"                   "variable naccept equal ${increment}"                 elif "${rn} <= ${boltzfactor}"                   "variable elast equal $e"                   "variable naccept equal ${increment}"                 else                   "set atom $i x ${x0}"                   "set atom $i y ${y0}"
set atom $i x ${x0}
set atom 24 x ${x0}
set atom 24 x 1.66628361820956
  1 settings made for x
set atom $i y ${y0}
set atom 24 y ${y0}
set atom 24 y 8.33030129589137
  1 settings made for y

next            iter
jump            SELF loop

variable        i equal ${irandom}
variable        i equal 30

variable        x0 equal ${xi}
variable        x0 equal 4.94295528768836
variable        y0 equal ${yi}
variable        y0 equal 1.1037085492495

set             atom $i x ${xnew}
set             atom 30 x ${xnew}
set             atom 30 x 4.92978396057426
  1 settings made for x
set             atom $i y ${ynew}
set             atom 30 y ${ynew}
set             atom 30 y 1.00790997337136
  1 settings made for y

run             1 pre no post no
Step v_emin v_elast PotEng 
      51   -2.9871562    18.147353    18.147864 
      52   -2.9871562    18.147353    17.310935 
Loop time of 4.11459e-05 on 8 procs for 1 steps with 100 atoms


if              "$e <= ${elast}" then                   "variable elast equal $e"                   "variable naccept equal ${increment}"                 elif "${rn} <= ${boltzfactor}"                   "variable elast equal $e"                   "variable naccept equal ${increment}"                 else                   "set atom $i x ${x0}"                   "set atom $i y ${y0}"
variable elast equal $e
variable elast equal 17.3109345433279
variable naccept equal ${increment}
variable naccept equal 13

next            iter
jump            SELF loop

variable        i equal ${irandom}
variable        i equal 11

variable        x0 equal ${xi}
variable        x0 equal 10.7767231901341
variable        y0 equal ${yi}
variable        y0 equal 3.80844516320359

set             atom $i x ${xnew}
set             atom 11 x ${xnew}
set             atom 11 x 10.8204353769475
  1 settings made for x
set             atom $i y ${ynew}
set             atom 11 y ${ynew}
set             atom 11 y 3.79125471873414
  1 settings made for y

run             1 pre no post no
Step v_emin v_elast PotEng 
      52   -2.9871562    17.310935    17.310935 
      53   -2.9871562    17.310935    17.326205 
Loop time of 6.94373e-05 on 8 procs for 1 steps with 100 atoms


if              "$e <= ${elast}" then                   "variable elast equal $e"                   "variable naccept equal ${increment}"                 elif "${rn} <= ${boltzfactor}"                   "variable elast equal $e"                   "variable naccept equal ${increment}"                 else                   "set atom $i x ${x0}"                   "set atom $i y ${y0}"
set atom $i x ${x0}
set atom 11 x ${x0}
set atom 11 x 10.7767231901341
  1 settings made for x
set atom $i y ${y0}
set atom 11 y ${y0}
set atom 11 y 3.80844516320359
  1 settings made for y

next            iter
jump            SELF loop

variable        i equal ${irandom}
variable        i equal 15

variable        x0 equal ${xi}
variable        x0 equal 1.50943795323153
variable        y0 equal ${yi}
variable        y0 equal 4.83169741982385

set             atom $i x ${xnew}
set             atom 15 x ${xnew}
set             atom 15 x 1.55248561978121
  1 settings made for x
set             atom $i y ${ynew}
set             atom 15 y ${ynew}
set             atom 15 y 4.91601028794214
  1 settings made for y

run             1 pre no post no
Step v_emin v_elast PotEng 
      53   -2.9871562    17.310935    17.326205 
      54   -2.9871562    17.310935    17.342575 
Loop time of 6.70069e-05 on 8 procs for 1 steps with 100 atoms


if              "$e <= ${elast}" then                   "variable elast equal $e"                   "variable naccept equal ${increment}"                 elif "${rn} <= ${boltzfactor}"                   "variable elast equal $e"                   "variable naccept equal ${increment}"                 else                   "set atom $i x ${x0}"                   "set atom $i y ${y0}"
set atom $i x ${x0}
set atom 15 x ${x0}
set atom 15 x 1.50943795323153
  1 settings made for x
set atom $i y ${y0}
set atom 15 y ${y0}
set atom 15 y 4.83169741982385
  1 settings made for y

next            iter
jump            SELF loop

variable        i equal ${irandom}
variable        i equal 54

variable        x0 equal ${xi}
variable        x0 equal 7.04622503796264
variable        y0 equal ${yi}
variable        y0 equal 0.941362734544604

set             atom $i x ${xnew}
set             atom 54 x ${xnew}
set             atom 54 x 7.00735670605346
  1 settings made for x
set             atom $i y ${ynew}
set             atom 54 y ${ynew}
set             atom 54 y 1.01247323344979
  1 settings made for y

run             1 pre no post no
Step v_emin v_elast PotEng 
      54   -2.9871562    17.310935    17.342575 
      55   -2.9871562    17.310935    17.318839 
Loop time of 4.22434e-05 on 8 procs for 1 steps with 100 atoms


if              "$e <= ${elast}" then                   "variable elast equal $e"                   "variable naccept equal ${increment}"                 elif "${rn} <= ${boltzfactor}"                   "variable elast equal $e"                   "variable naccept equal ${increment}"                 else                   "set atom $i x ${x0}"                   "set atom $i y ${y0}"
set atom $i x ${x0}
set atom 54 x ${x0}
set atom 54 x 7.04622503796264
  1 settings made for x
set atom $i y ${y0}
set atom 54 y ${y0}
set atom 54 y 0.941362734544604
  1 settings made for y

next            iter
jump            SELF loop

variable        i equal ${irandom}
variable        i equal 60

variable        x0 equal ${xi}
variable        x0 equal 7.57711223203909
variable        y0 equal ${yi}
variable        y0 equal 1.7166861691243

set             atom $i x ${xnew}
set             atom 60 x ${xnew}
set             atom 60 x 7.4786569936968
  1 settings made for x
set             atom $i y ${ynew}
set             atom 60 y ${ynew}
set             atom 60 y 1.62874253175324
  1 settings made for y

run             1 pre no post no
Step v_emin v_elast PotEng 
      55   -2.9871562    17.310935    17.318839 
      56   -2.9871562    17.310935    17.633433 
Loop time of 4.85934e-05 on 8 procs for 1 steps with 100 atoms


if              "$e <= ${elast}" then                   "variable elast equal $e"                   "variable naccept equal ${increment}"                 elif "${rn} <= ${boltzfactor}"                   "variable elast equal $e"                   "variable naccept equal ${increment}"                 else                   "set atom $i x ${x0}"                   "set atom $i y ${y0}"
set atom $i x ${x0}
set atom 60 x ${x0}
set atom 60 x 7.57711223203909
  1 settings made for x
set atom $i y ${y0}
set atom 60 y ${y0}
set atom 60 y 1.7166861691243
  1 settings made for y

next            iter
jump            SELF loop

variable        i equal ${irandom}
variable        i equal 42

variable        x0 equal ${xi}
variable        x0 equal 3.19426209687749
variable        y0 equal ${yi}
variable        y0 equal 5.42006843035418

set             atom $i x ${xnew}
set             atom 42 x ${xnew}
set             atom 42 x 3.10837893247166
  1 settings made for x
set             atom $i y ${ynew}
set             atom 42 y ${ynew}
set             atom 42 y 5.42797319834429
  1 settings made for y

run             1 pre no post no
Step v_emin v_elast PotEng 
      56   -2.9871562    17.310935    17.633433 
[...]
set             atom 73 y ${ynew}
set             atom 73 y 7.27544842090869
  1 settings made for y

run             1 pre no post no
Step v_emin v_elast PotEng 
    2986   -2.9871562    -2.790467   -2.7651666 
    2987   -2.9871562    -2.790467    -2.764488 
Loop time of 3.76307e-05 on 8 procs for 1 steps with 100 atoms


if              "$e <= ${elast}" then                   "variable elast equal $e"                   "variable naccept equal ${increment}"                 elif "${rn} <= ${boltzfactor}"                   "variable elast equal $e"                   "variable naccept equal ${increment}"                 else                   "set atom $i x ${x0}"                   "set atom $i y ${y0}"
set atom $i x ${x0}
set atom 73 x ${x0}
set atom 73 x 6.4587552738102
  1 settings made for x
set atom $i y ${y0}
set atom 73 y ${y0}
set atom 73 y 7.36176157322192
  1 settings made for y

next            iter
jump            SELF loop

variable        i equal ${irandom}
variable        i equal 32

variable        x0 equal ${xi}
variable        x0 equal 3.28958694695988
variable        y0 equal ${yi}
variable        y0 equal 1.91325869939392

set             atom $i x ${xnew}
set             atom 32 x ${xnew}
set             atom 32 x 3.34457401990452
  1 settings made for x
set             atom $i y ${ynew}
set             atom 32 y ${ynew}
set             atom 32 y 1.92369964501923
  1 settings made for y

run             1 pre no post no
Step v_emin v_elast PotEng 
    2987   -2.9871562    -2.790467    -2.764488 
    2988   -2.9871562    -2.790467   -2.7868928 
Loop time of 3.57224e-05 on 8 procs for 1 steps with 100 atoms


if              "$e <= ${elast}" then                   "variable elast equal $e"                   "variable naccept equal ${increment}"                 elif "${rn} <= ${boltzfactor}"                   "variable elast equal $e"                   "variable naccept equal ${increment}"                 else                   "set atom $i x ${x0}"                   "set atom $i y ${y0}"
set atom $i x ${x0}
set atom 32 x ${x0}
set atom 32 x 3.28958694695988
  1 settings made for x
set atom $i y ${y0}
set atom 32 y ${y0}
set atom 32 y 1.91325869939392
  1 settings made for y

next            iter
jump            SELF loop

variable        i equal ${irandom}
variable        i equal 49

variable        x0 equal ${xi}
variable        x0 equal 4.37309358198854
variable        y0 equal ${yi}
variable        y0 equal 7.47418843832278

set             atom $i x ${xnew}
set             atom 49 x ${xnew}
set             atom 49 x 4.30631213267061
  1 settings made for x
set             atom $i y ${ynew}
set             atom 49 y ${ynew}
set             atom 49 y 7.49401879635119
  1 settings made for y

run             1 pre no post no
Step v_emin v_elast PotEng 
    2988   -2.9871562    -2.790467   -2.7868928 
    2989   -2.9871562    -2.790467   -2.7850677 
Loop time of 3.74931e-05 on 8 procs for 1 steps with 100 atoms


if              "$e <= ${elast}" then                   "variable elast equal $e"                   "variable naccept equal ${increment}"                 elif "${rn} <= ${boltzfactor}"                   "variable elast equal $e"                   "variable naccept equal ${increment}"                 else                   "set atom $i x ${x0}"                   "set atom $i y ${y0}"
set atom $i x ${x0}
set atom 49 x ${x0}
set atom 49 x 4.37309358198854
  1 settings made for x
set atom $i y ${y0}
set atom 49 y ${y0}
set atom 49 y 7.47418843832278
  1 settings made for y

next            iter
jump            SELF loop

variable        i equal ${irandom}
variable        i equal 6

variable        x0 equal ${xi}
variable        x0 equal 0.101794230937958
variable        y0 equal ${yi}
variable        y0 equal 1.84877194545335

set             atom $i x ${xnew}
set             atom 6 x ${xnew}
set             atom 6 x 0.178269803524018
  1 settings made for x
set             atom $i y ${ynew}
set             atom 6 y ${ynew}
set             atom 6 y 1.76079683682985
  1 settings made for y

run             1 pre no post no
Step v_emin v_elast PotEng 
    2989   -2.9871562    -2.790467   -2.7850677 
    2990   -2.9871562    -2.790467   -2.7279946 
Loop time of 3.72943e-05 on 8 procs for 1 steps with 100 atoms


if              "$e <= ${elast}" then                   "variable elast equal $e"                   "variable naccept equal ${increment}"                 elif "${rn} <= ${boltzfactor}"                   "variable elast equal $e"                   "variable naccept equal ${increment}"                 else                   "set atom $i x ${x0}"                   "set atom $i y ${y0}"
set atom $i x ${x0}
set atom 6 x ${x0}
set atom 6 x 0.101794230937958
  1 settings made for x
set atom $i y ${y0}
set atom 6 y ${y0}
set atom 6 y 1.84877194545335
  1 settings made for y

next            iter
jump            SELF loop

variable        i equal ${irandom}
variable        i equal 89

variable        x0 equal ${xi}
variable        x0 equal 9.14624181706459
variable        y0 equal ${yi}
variable        y0 equal 4.60836122387811

set             atom $i x ${xnew}
set             atom 89 x ${xnew}
set             atom 89 x 9.15284846741707
  1 settings made for x
set             atom $i y ${ynew}
set             atom 89 y ${ynew}
set             atom 89 y 4.54217812174722
  1 settings made for y

run             1 pre no post no
Step v_emin v_elast PotEng 
    2990   -2.9871562    -2.790467   -2.7279946 
    2991   -2.9871562    -2.790467   -2.7714038 
Loop time of 3.60844e-05 on 8 procs for 1 steps with 100 atoms


if              "$e <= ${elast}" then                   "variable elast equal $e"                   "variable naccept equal ${increment}"                 elif "${rn} <= ${boltzfactor}"                   "variable elast equal $e"                   "variable naccept equal ${increment}"                 else                   "set atom $i x ${x0}"                   "set atom $i y ${y0}"
set atom $i x ${x0}
set atom 89 x ${x0}
set atom 89 x 9.14624181706459
  1 settings made for x
set atom $i y ${y0}
set atom 89 y ${y0}
set atom 89 y 4.60836122387811
  1 settings made for y

next            iter
jump            SELF loop

variable        i equal ${irandom}
variable        i equal 71

variable        x0 equal ${xi}
variable        x0 equal 5.42935876050855
variable        y0 equal ${yi}
variable        y0 equal 7.38294791307711

set             atom $i x ${xnew}
set             atom 71 x ${xnew}
set             atom 71 x 5.466302446517
  1 settings made for x
set             atom $i y ${ynew}
set             atom 71 y ${ynew}
set             atom 71 y 7.38777832117342
  1 settings made for y

run             1 pre no post no
Step v_emin v_elast PotEng 
    2991   -2.9871562    -2.790467   -2.7714038 
    2992   -2.9871562    -2.790467   -2.7832327 
Loop time of 3.65853e-05 on 8 procs for 1 steps with 100 atoms


if              "$e <= ${elast}" then                   "variable elast equal $e"                   "variable naccept equal ${increment}"                 elif "${rn} <= ${boltzfactor}"                   "variable elast equal $e"                   "variable naccept equal ${increment}"                 else                   "set atom $i x ${x0}"                   "set atom $i y ${y0}"
set atom $i x ${x0}
set atom 71 x ${x0}
set atom 71 x 5.42935876050855
  1 settings made for x
set atom $i y ${y0}
set atom 71 y ${y0}
set atom 71 y 7.38294791307711
  1 settings made for y

next            iter
jump            SELF loop

variable        i equal ${irandom}
variable        i equal 16

variable        x0 equal ${xi}
variable        x0 equal 10.6997664650136
variable        y0 equal ${yi}
variable        y0 equal 5.5742603296538

set             atom $i x ${xnew}
set             atom 16 x ${xnew}
set             atom 16 x 10.7903243978673
  1 settings made for x
set             atom $i y ${ynew}
set             atom 16 y ${ynew}
set             atom 16 y 5.53763686363894
  1 settings made for y

run             1 pre no post no
Step v_emin v_elast PotEng 
    2992   -2.9871562    -2.790467   -2.7832327 
    2993   -2.9871562    -2.790467   -2.7647993 
Loop time of 3.66507e-05 on 8 procs for 1 steps with 100 atoms


if              "$e <= ${elast}" then                   "variable elast equal $e"                   "variable naccept equal ${increment}"                 elif "${rn} <= ${boltzfactor}"                   "variable elast equal $e"                   "variable naccept equal ${increment}"                 else                   "set atom $i x ${x0}"                   "set atom $i y ${y0}"
set atom $i x ${x0}
set atom 16 x ${x0}
set atom 16 x 10.6997664650136
  1 settings made for x
set atom $i y ${y0}
set atom 16 y ${y0}
set atom 16 y 5.5742603296538
  1 settings made for y

next            iter
jump            SELF loop

variable        i equal ${irandom}
variable        i equal 37

variable        x0 equal ${xi}
variable        x0 equal 4.30488829691621
variable        y0 equal ${yi}
variable        y0 equal 3.72380816502702

set             atom $i x ${xnew}
set             atom 37 x ${xnew}
set             atom 37 x 4.38392670233461
  1 settings made for x
set             atom $i y ${ynew}
set             atom 37 y ${ynew}
set             atom 37 y 3.71435775323045
  1 settings made for y

run             1 pre no post no
Step v_emin v_elast PotEng 
    2993   -2.9871562    -2.790467   -2.7647993 
    2994   -2.9871562    -2.790467   -2.7829886 
Loop time of 3.58579e-05 on 8 procs for 1 steps with 100 atoms


if              "$e <= ${elast}" then                   "variable elast equal $e"                   "variable naccept equal ${increment}"                 elif "${rn} <= ${boltzfactor}"                   "variable elast equal $e"                   "variable naccept equal ${increment}"                 else                   "set atom $i x ${x0}"                   "set atom $i y ${y0}"
set atom $i x ${x0}
set atom 37 x ${x0}
set atom 37 x 4.30488829691621
  1 settings made for x
set atom $i y ${y0}
set atom 37 y ${y0}
set atom 37 y 3.72380816502702
  1 settings made for y

next            iter
jump            SELF loop

variable        i equal ${irandom}
variable        i equal 84

variable        x0 equal ${xi}
variable        x0 equal 9.77372619389173
variable        y0 equal ${yi}
variable        y0 equal 1.9292484082944

set             atom $i x ${xnew}
set             atom 84 x ${xnew}
set             atom 84 x 9.80390117643949
  1 settings made for x
set             atom $i y ${ynew}
set             atom 84 y ${ynew}
set             atom 84 y 1.91664781949588
  1 settings made for y

run             1 pre no post no
Step v_emin v_elast PotEng 
    2994   -2.9871562    -2.790467   -2.7829886 
    2995   -2.9871562    -2.790467    -2.789999 
Loop time of 3.6176e-05 on 8 procs for 1 steps with 100 atoms


if              "$e <= ${elast}" then                   "variable elast equal $e"                   "variable naccept equal ${increment}"                 elif "${rn} <= ${boltzfactor}"                   "variable elast equal $e"                   "variable naccept equal ${increment}"                 else                   "set atom $i x ${x0}"                   "set atom $i y ${y0}"
variable elast equal $e
variable elast equal -2.78999898355704
variable naccept equal ${increment}
variable naccept equal 488

next            iter
jump            SELF loop

variable        i equal ${irandom}
variable        i equal 66

variable        x0 equal ${xi}
variable        x0 equal 5.36031145254042
variable        y0 equal ${yi}
variable        y0 equal 5.55776102488237

set             atom $i x ${xnew}
set             atom 66 x ${xnew}
set             atom 66 x 5.32599838176634
  1 settings made for x
set             atom $i y ${ynew}
set             atom 66 y ${ynew}
set             atom 66 y 5.5632608289023
  1 settings made for y

run             1 pre no post no
Step v_emin v_elast PotEng 
    2995   -2.9871562    -2.789999    -2.789999 
    2996   -2.9871562    -2.789999   -2.7888661 
Loop time of 3.7056e-05 on 8 procs for 1 steps with 100 atoms


if              "$e <= ${elast}" then                   "variable elast equal $e"                   "variable naccept equal ${increment}"                 elif "${rn} <= ${boltzfactor}"                   "variable elast equal $e"                   "variable naccept equal ${increment}"                 else                   "set atom $i x ${x0}"                   "set atom $i y ${y0}"
set atom $i x ${x0}
set atom 66 x ${x0}
set atom 66 x 5.36031145254042
  1 settings made for x
set atom $i y ${y0}
set atom 66 y ${y0}
set atom 66 y 5.55776102488237
  1 settings made for y

next            iter
jump            SELF loop

variable        i equal ${irandom}
variable        i equal 21

variable        x0 equal ${xi}
variable        x0 equal 10.7073550899677
variable        y0 equal ${yi}
variable        y0 equal 7.45095640745426

set             atom $i x ${xnew}
set             atom 21 x ${xnew}
set             atom 21 x 10.8010260899715
  1 settings made for x
set             atom $i y ${ynew}
set             atom 21 y ${ynew}
set             atom 21 y 7.49749026623035
  1 settings made for y

run             1 pre no post no
Step v_emin v_elast PotEng 
    2996   -2.9871562    -2.789999   -2.7888661 
    2997   -2.9871562    -2.789999    -2.769271 
Loop time of 3.77689e-05 on 8 procs for 1 steps with 100 atoms


if              "$e <= ${elast}" then                   "variable elast equal $e"                   "variable naccept equal ${increment}"                 elif "${rn} <= ${boltzfactor}"                   "variable elast equal $e"                   "variable naccept equal ${increment}"                 else                   "set atom $i x ${x0}"                   "set atom $i y ${y0}"
set atom $i x ${x0}
set atom 21 x ${x0}
set atom 21 x 10.7073550899677
  1 settings made for x
set atom $i y ${y0}
set atom 21 y ${y0}
set atom 21 y 7.45095640745426
  1 settings made for y

next            iter
jump            SELF loop

variable        i equal ${irandom}
variable        i equal 34

variable        x0 equal ${xi}
variable        x0 equal 4.39493876774522
variable        y0 equal ${yi}
variable        y0 equal 1.88860803029603

set             atom $i x ${xnew}
set             atom 34 x ${xnew}
set             atom 34 x 4.34888207991334
  1 settings made for x
set             atom $i y ${ynew}
set             atom 34 y ${ynew}
set             atom 34 y 1.94404620311326
  1 settings made for y

run             1 pre no post no
Step v_emin v_elast PotEng 
    2997   -2.9871562    -2.789999    -2.769271 
    2998   -2.9871562    -2.789999   -2.7744715 
Loop time of 3.60119e-05 on 8 procs for 1 steps with 100 atoms


if              "$e <= ${elast}" then                   "variable elast equal $e"                   "variable naccept equal ${increment}"                 elif "${rn} <= ${boltzfactor}"                   "variable elast equal $e"                   "variable naccept equal ${increment}"                 else                   "set atom $i x ${x0}"                   "set atom $i y ${y0}"
set atom $i x ${x0}
set atom 34 x ${x0}
set atom 34 x 4.39493876774522
  1 settings made for x
set atom $i y ${y0}
set atom 34 y ${y0}
set atom 34 y 1.88860803029603
  1 settings made for y

next            iter
jump            SELF loop

variable        i equal ${irandom}
variable        i equal 90

variable        x0 equal ${xi}
variable        x0 equal 10.1955849651357
variable        y0 equal ${yi}
variable        y0 equal 4.64925400370525

set             atom $i x ${xnew}
set             atom 90 x ${xnew}
set             atom 90 x 10.1757787827512
  1 settings made for x
set             atom $i y ${ynew}
set             atom 90 y ${ynew}
set             atom 90 y 4.58302171582149
  1 settings made for y

run             1 pre no post no
Step v_emin v_elast PotEng 
    2998   -2.9871562    -2.789999   -2.7744715 
    2999   -2.9871562    -2.789999   -2.7784828 
Loop time of 3.85941e-05 on 8 procs for 1 steps with 100 atoms


if              "$e <= ${elast}" then                   "variable elast equal $e"                   "variable naccept equal ${increment}"                 elif "${rn} <= ${boltzfactor}"                   "variable elast equal $e"                   "variable naccept equal ${increment}"                 else                   "set atom $i x ${x0}"                   "set atom $i y ${y0}"
set atom $i x ${x0}
set atom 90 x ${x0}
set atom 90 x 10.1955849651357
  1 settings made for x
set atom $i y ${y0}
set atom 90 y ${y0}
set atom 90 y 4.64925400370525
  1 settings made for y

next            iter
jump            SELF loop

variable        i equal ${irandom}
variable        i equal 52

variable        x0 equal ${xi}
variable        x0 equal 5.97854424674504
variable        y0 equal ${yi}
variable        y0 equal 0.914465494859546

set             atom $i x ${xnew}
set             atom 52 x ${xnew}
set             atom 52 x 5.9139833207845
  1 settings made for x
set             atom $i y ${ynew}
set             atom 52 y ${ynew}
set             atom 52 y 0.972595818746417
  1 settings made for y

run             1 pre no post no
Step v_emin v_elast PotEng 
    2999   -2.9871562    -2.789999   -2.7784828 
    3000   -2.9871562    -2.789999   -2.7769537 
Loop time of 3.67728e-05 on 8 procs for 1 steps with 100 atoms


if              "$e <= ${elast}" then                   "variable elast equal $e"                   "variable naccept equal ${increment}"                 elif "${rn} <= ${boltzfactor}"                   "variable elast equal $e"                   "variable naccept equal ${increment}"                 else                   "set atom $i x ${x0}"                   "set atom $i y ${y0}"
set atom $i x ${x0}
set atom 52 x ${x0}
set atom 52 x 5.97854424674504
  1 settings made for x
set atom $i y ${y0}
set atom 52 y ${y0}
set atom 52 y 0.914465494859546
  1 settings made for y

next            iter
jump            SELF loop

# final energy and stats

variable       nb equal nbuild
variable       nbuild equal ${nb}
variable       nbuild equal 38

run             0
WARNING: No fixes defined, atoms won't move (../verlet.cpp:55)
Per MPI rank memory allocation (min/avg/max) = 2.933 | 2.933 | 2.933 Mbytes
Step v_emin v_elast PotEng 
    3000   -2.9871562    -2.789999    -2.789999 
Loop time of 3.99626e-06 on 8 procs for 0 steps with 100 atoms

100.1% CPU use with 8 MPI tasks x no OpenMP threads

MPI task timing breakdown:
Section |  min time  |  avg time  |  max time  |%varavg| %total
---------------------------------------------------------------
Pair    | 0          | 0          | 0          |   0.0 |  0.00
Neigh   | 0          | 0          | 0          |   0.0 |  0.00
Comm    | 0          | 0          | 0          |   0.0 |  0.00
Output  | 0          | 0          | 0          |   0.0 |  0.00
Modify  | 0          | 0          | 0          |   0.0 |  0.00
Other   |            | 3.996e-06  |            |       |100.00

Nlocal:    12.5 ave 16 max 10 min
Histogram: 2 0 0 2 0 2 1 0 0 1
Nghost:    77.125 ave 80 max 73 min
Histogram: 1 0 0 0 2 1 0 2 1 1
Neighs:    127.875 ave 175 max 94 min
Histogram: 1 2 0 0 3 0 1 0 0 1

Total # of neighbors = 1023
Ave neighs/atom = 10.23
Neighbor list builds = 0
Dangerous builds = 0

print           "MC stats:"
MC stats:
print           "  starting energy = ${estart}"
  starting energy = 19.1997808254901
print           "  final energy = $e"
  final energy = -2.78999898355704
print           "  minimum energy of perfect lattice = ${emin}"
  minimum energy of perfect lattice = -2.98715616447944
print           "  accepted MC moves = ${naccept}"
  accepted MC moves = 488
print           "  neighbor list rebuilds = ${nbuild}"
  neighbor list rebuilds = 38
Total wall time: 0:00:00
