LAMMPS (4 Jan 2019)
# INPUT FILE FOR DPD_Fluid

##log             #log.dpde-vv
boundary        p p p

units           metal  # ev, ps
atom_style      dpd
read_data       data.dpd
  orthogonal box = (-64.5 -64.5 -64.5) to (64.5 64.5 64.5)
  2 by 2 by 2 MPI processor grid
  reading atoms ...
  10125 atoms
  reading velocities ...
  10125 velocities

comm_modify     mode single vel yes
mass            1 125.9

pair_style      dpd/fdt/energy 8.6 245455
pair_coeff      1 1 0.075 0.022 3.2E-05 8.60

neighbor        2.0 bin
neigh_modify    every 1 delay 0 check no once no

timestep        0.001

fix             1 all dpd/energy
fix             2 all nve
fix             3 all eos/cv 0.00517041

compute         dpdU all dpd

variable        totEnergy equal pe+ke+c_dpdU[1]+c_dpdU[2]

thermo          10
thermo_style    custom step temp press pe ke c_dpdU[1] c_dpdU[2] v_totEnergy c_dpdU[4]
thermo_modify   format float %24.16f

run             1000
Neighbor list info ...
  update every 1 steps, delay 0 steps, check no
  max neighbors/atom: 2000, page size: 100000
  master list distance cutoff = 10.6
  ghost atom cutoff = 10.6
  binsize = 5.3, bins = 25 25 25
  1 neighbor lists, perpetual/occasional/extra = 1 0 0
  (1) pair dpd/fdt/energy, perpetual
      attributes: half, newton on
      pair build: half/bin/atomonly/newton
      stencil: half/bin/3d/newton
      bin: standard
Per MPI rank memory allocation (min/avg/max) = 3.365 | 3.367 | 3.37 Mbytes
Step Temp Press PotEng KinEng c_dpdU[1] c_dpdU[2] v_totEnergy c_dpdU[4] 
       0     301.4391322267260307    1452.7632571269366508    1188.6488072196161738     394.4722035796050932       0.0000000000000000   15705.1203749997293926   17288.2413857989522512     299.9999999999971010 
      10     301.5881304063861990    1591.9400986613034092    1188.7111199247935929     394.6671870239433133       0.0000000000000000   15704.8013424048876914   17288.1796493536239723     299.9934971522686737 
      20     301.3269851770716059    1595.1191186274738811    1188.7716447468023944     394.3254446187650046       0.0000000000000000   15705.0812988222132844   17288.1783881877818203     299.9984340742621498 
      30     301.5837229743362968    1489.6268710152894528    1188.8260220508991551     394.6614193274269269      -0.0000000000000000   15704.6872890156737412   17288.1747303939991980     299.9904782957185034 
      40     301.8565552432147001    1602.1358034617976500    1188.8814027574549073     395.0184557397768117      -0.0000000000000000   15704.2710194532810419   17288.1708779505133862     299.9821509720758854 
      50     301.9430282837886921    1530.5516391560179272    1188.9358103028102960     395.1316169296112548      -0.0000000000000000   15704.1000796916378022   17288.1675069240591256     299.9784704809638924 
      60     301.7722855673480353    1573.4012072553682628    1188.9849327596468811     394.9081779384558217       0.0000000000000000   15704.2789980366687814   17288.1721087347723369     299.9814386537137239 
      70     301.5940155518835581    1462.2211339448797389    1189.0310630130970821     394.6748885001769622      -0.0000000000000000   15704.4729981468044571   17288.1789496600795246     299.9847738071428012 
      80     301.4446651346596013    1562.2490664398826539    1189.0759048069021446     394.4794441072984910      -0.0000000000000000   15704.6221623788514989   17288.1775112930517935     299.9872170818540553 
      90     301.1296583368225583    1504.2539689071611519    1189.1181138294391531     394.0672168534332513      -0.0000000000000000   15704.9925660932021856   17288.1778967760765227     299.9938651064186956 
     100     301.2841562865026503    1498.9698459609078327    1189.1584189465329473     394.2693974602066191      -0.0000000000000000   15704.7525551243470545   17288.1803715310852567     299.9888353108652268 
     110     301.2363094455474197    1439.2606030697986625    1189.1952967213501324     394.2067836626996495      -0.0000000000000000   15704.7759980942428228   17288.1780784782931732     299.9888324570831628 
     120     301.1386611247195901    1460.9847667467759038    1189.2285640939658151     394.0789981691299886      -0.0000000000000000   15704.8756964692529436   17288.1832587323478947     299.9902880793653708 
     130     301.1800509392330127    1468.0592301440731262    1189.2551969616986298     394.1331621100100051      -0.0000000000000000   15704.7929532184989512   17288.1813122902094619     299.9882595727144121 
     140     301.3217147401050511    1572.0038963382380643    1189.2796585605299242     394.3185475683765162      -0.0000000000000000   15704.5918057848921308   17288.1900119137972069     299.9840000179181061 
     150     301.4218069319871347    1617.1061461366768981    1189.3034878304183621     394.4495311842102865      -0.0000000000000000   15704.4325517795477936   17288.1855707941758737     299.9805431589276736 
     160     301.3780196280952168    1558.7338797858024009    1189.3218535481773870     394.3922298175049264      -0.0000000000000000   15704.4621531910943304   17288.1762365567774395     299.9807242353964511 
     170     301.4711063845193735    1543.7453507647001061    1189.3375069557296229     394.5140459123811070      -0.0000000000000000   15704.3143499934794818   17288.1659028615904390     299.9774924531437250 
     180     301.6306499578544731    1520.7097556570161032    1189.3499064268062284     394.7228293721647105      -0.0000000000000000   15704.0890224321847199   17288.1617582311555452     299.9726812477626368 
     190     301.6141982628011533    1553.4769565103463265    1189.3572921621234855     394.7013001952713012      -0.0000000000000000   15704.1004515179847658   17288.1590438753810304     299.9725379143570763 
     200     301.2659447122695724    1549.2941320645315955    1189.3619840854103131     394.2455652531361352      -0.0000000000000000   15704.5469464410998626   17288.1544957796468225     299.9807538026566931 
     210     300.8800359934501785    1570.2661736339687195    1189.3724664323290199     393.7405536391206056      -0.0000000000000000   15705.0380443457415822   17288.1510644171903550     299.9898178898019978 
     220     300.5837048941010607    1571.5166028362070847    1189.3834500019547704     393.3527659591139809      -0.0000000000000000   15705.4105605242402817   17288.1467764853077824     299.9965004045871524 
     230     300.5452000111330335    1541.5350078902329187    1189.3973604196396536     393.3023773253597142      -0.0000000000000000   15705.4471727742948133   17288.1469105192954885     299.9968714028918839 
     240     300.4299186433553928    1565.1974839545180203    1189.4112585705120182     393.1515167027093298      -0.0000000000000000   15705.5860252862821653   17288.1488005595019786     299.9991186893552708 
     250     300.5706401518574467    1598.3954280336188276    1189.4263295410985393     393.3356690492868779      -0.0000000000000000   15705.3883915967744542   17288.1503901871583366     299.9949858167922798 
     260     300.4861286216875556    1524.9018931289410830    1189.4387130938744122     393.2250747502396848      -0.0000000000000000   15705.4827406289496139   17288.1465284730620624     299.9965432422733329 
     270     300.6530553603884073    1577.9888904046433709    1189.4426718739273383     393.4435200395598713      -0.0000000000000000   15705.2625569153133256   17288.1487488288003078     299.9920130779019019 
     280     300.7267038215093748    1530.3073856516966771    1189.4463263170682694     393.5398986037297391      -0.0000000000000000   15705.1632998386194231   17288.1495247594175453     299.9896472408939303 
     290     300.7332139368978119    1454.3051387042175975    1189.4505077108522073     393.5484179341294748      -0.0000000000000000   15705.1594115624866390   17288.1583372074674116     299.9892635146813404 
     300     300.8584100756670523    1568.3853559014735310    1189.4598739319490051     393.7122533206472781      -0.0000000000000000   15704.9849683622160228   17288.1570956148134428     299.9855378018319243 
     310     301.0139352946059148    1587.5307790591734829    1189.4694866932920831     393.9157782424907737      -0.0000000000000000   15704.7685200977412023   17288.1537850335225812     299.9810396947945037 
     320     300.7445619940550046    1533.6823720395311739    1189.4757493936890569     393.5632683388532200      -0.0000000000000000   15705.1176035131466051   17288.1566212456891662     299.9873219667236413 
     330     300.8008021381257322    1540.1910918011005833    1189.4760459255132901     393.6368658621652230       0.0000000000000000   15705.0398639613067644   17288.1527757489857322     299.9854896581481398 
     340     300.7774099601434727    1493.7652661211957366    1189.4715973555046276     393.6062541631233103       0.0000000000000000   15705.0815349091190001   17288.1593864277456305     299.9859701029210441 
     350     300.9400114135012814    1513.7918688475813269    1189.4612349920607812     393.8190392555480344      -0.0000000000000000   15704.8775911510565493   17288.1578653986653080     299.9818314320878017 
     360     300.9372184775235155    1550.5124174415079779    1189.4489885595644409     393.8153843365550415       0.0000000000000000   15704.8928177142806817   17288.1571906103999936     299.9818299294540225 
     370     300.6655572267203524    1550.7225362293697799    1189.4356214769054532     393.4598803532470583      -0.0000000000000000   15705.2664891007134429   17288.1619909308647038     299.9885443590925433 
     380     300.3410199242144927    1578.8672360327725528    1189.4181379912893135     393.0351811978401884       0.0000000000000000   15705.7103924636630836   17288.1637116527926992     299.9966849120107213 
     390     300.4632335648038293    1466.9464643197641180    1189.4009129049472904     393.1951135986357713       0.0000000000000000   15705.5741512931563193   17288.1701777967391536     299.9936695251928427 
     400     300.5123507949188593    1552.6071718572491136    1189.3859180467081842     393.2593898651379618       0.0000000000000000   15705.5208181587750005   17288.1661260706205212     299.9923266661228922 
     410     300.3008833818261110    1569.3959674112334142    1189.3731295505108392     392.9826573260951363       0.0000000000000000   15705.8095780895455391   17288.1653649661529926     299.9974431623495548 
     420     300.4721815219556333    1651.2681583943897294    1189.3603114106977046     393.2068231611903570       0.0000000000000000   15705.6113281686120899   17288.1784627404995263     299.9932719887575558 
     430     300.4096647836803413    1548.5456222917921423    1189.3407823363077114     393.1250119002372685       0.0000000000000000   15705.7084435967208265   17288.1742378332673979     299.9948149565976223 
     440     300.3618732648186551    1592.0578308985880085    1189.3144699907536506     393.0624704988654230       0.0000000000000000   15705.7977637080330169   17288.1747041976523178     299.9961721076008416 
     450     300.3265265471673047    1487.7925689769142537    1189.2875088132095698     393.0162147340672618       0.0000000000000000   15705.8775981901344494   17288.1813217374110536     299.9972303974831789 
     460     299.6059013973501806    1561.8718363734756167    1189.2571205213880603     392.0731832546990177       0.0000000000000000   15706.8480050645557640   17288.1783088406446041     300.0155396857069832 
     470     299.6068225524040258    1516.3025708721261253    1189.2217356616947654     392.0743887055681398       0.0000000000000000   15706.8873426914760785   17288.1834670587377332     300.0159750917325709 
     480     299.3861509320217351    1441.2712735979891931    1189.1827848079356045     391.7856112674277824       0.0000000000000000   15707.2216968066713889   17288.1900928820359695     300.0219759797503229 
     490     299.6390479061306564    1457.9110799865943591    1189.1429475094935242     392.1165597608049893       0.0000000000000000   15706.9311385080382024   17288.1906457783370570     300.0161148687363948 
     500     299.5179701399152918    1534.8065402115316829    1189.1027721966866011     391.9581137989596868       0.0000000000000000   15707.1277035022521886   17288.1885894978986471     300.0193903336389099 
     510     299.3356331550088498    1521.7555731677080075    1189.0605051176999041     391.7195022036476644       0.0000000000000000   15707.4100471122437739   17288.1900544335912855     300.0244392530955793 
     520     299.4255889517368701    1500.3147610543003339    1189.0170887082790614     391.8372210316509268       0.0000000000000000   15707.3291128643795673   17288.1834226043101808     300.0225655317358928 
     530     299.2715599632656449    1517.1474975476571672    1188.9754531942285212     391.6356541214473737       0.0000000000000000   15707.5696368652388628   17288.1807441809141892     300.0268327582605821 
     540     299.0431495919912095    1590.6770686513959845    1188.9316777038388864     391.3367495239868958       0.0000000000000000   15707.9067827442850103   17288.1752099721124978     300.0328711701735074 
     550     299.0597408185396944    1422.3524625413724607    1188.8819259080478332     391.3584612959400602       0.0000000000000000   15707.9278674679262622   17288.1682546719130187     300.0329184606563331 
     560     299.2413090039195822    1523.6821220117994926    1188.8361491754740200     391.5960668173522095       0.0000000000000000   15707.7390165945034823   17288.1712325873304508     300.0290233833803768 
     570     299.2871195306448158    1531.5043891925313346    1188.7884545924559916     391.6560158335630604       0.0000000000000000   15707.7192766015359666   17288.1637470275563828     300.0282906469250293 
     580     299.4646695357915291    1627.3021523824106680    1188.7404569636823908     391.8883630449500970       0.0000000000000000   15707.5221280610276153   17288.1509480696586252     300.0241657045575039 
     590     299.5948862596047206    1654.9274556946359098    1188.6903066010590919     392.0587685182078417       0.0000000000000000   15707.4045746602041618   17288.1536497794695606     300.0214100448101249 
     600     299.8703932786270911    1471.7185029709726223    1188.6353283325902339     392.4193051880575354       0.0000000000000000   15707.0943561291096557   17288.1489896497587324     300.0151777878322719 
     610     299.9629821298278785    1530.0661223095323749    1188.5709667875350988     392.5404697093666186       0.0000000000000000   15707.0415704969891522   17288.1530069938889937     300.0139274080211180 
     620     299.7031299485662998    1574.6089666618588581    1188.5026895441562829     392.2004194252843376       0.0000000000000000   15707.4599619805685506   17288.1630709500095691     300.0214610463475537 
     630     299.4598084699263154    1420.0777330830253504    1188.4340030566813766     391.8820017097464188       0.0000000000000000   15707.8408223494716367   17288.1568271158976131     300.0283529439943777 
     640     299.6323371562923512    1514.1435538451894445    1188.3683639935306928     392.1077778742037481      -0.0000000000000000   15707.6734876088339661   17288.1496294765674975     300.0247786214332564 
     650     299.6576422630280945    1527.1790785436603528    1188.3045557721329715     392.1408928886417584       0.0000000000000000   15707.7058493962886132   17288.1512980570623768     300.0250311193265702 
     660     299.6025549180176881    1507.4649153426605608    1188.2422615040577512     392.0688039524274018       0.0000000000000000   15707.8513543703720643   17288.1624198268582404     300.0273302021636255 
     670     299.6845032194231635    1601.8461947350128867    1188.1852214510111025     392.1760439341650795       0.0000000000000000   15707.7975002183266042   17288.1587656035044347     300.0258944721634862 
     680     299.6772011031293914    1586.1613225049352423    1188.1297843658503552     392.1664881678519237       0.0000000000000000   15707.8692502300855267   17288.1655227637893404     300.0268996398123704 
     690     299.8737433795312768    1321.2624999579988980    1188.0743987042210392     392.4236892296254950       0.0000000000000000   15707.6698893240245525   17288.1679772578718257     300.0227367186645893 
     700     300.0665390820001903    1487.0071314357385290    1188.0203012315025717     392.6759874134471602      -0.0000000000000000   15707.4711171036760788   17288.1674057486270613     300.0187090402153558 
     710     300.1427616334426034    1550.6706220786929862    1187.9642795193180973     392.7757345086827172       0.0000000000000000   15707.4433342825341242   17288.1833483105365303     300.0177150247046143 
     720     300.2584825517976128    1519.2753685143104576    1187.9073169420198610     392.9271703402768594       0.0000000000000000   15707.3518831801484339   17288.1863704624447564     300.0156581522447823 
     730     300.4267332991572630    1535.2046835048165576    1187.8483350241976950     393.1473482666615382       0.0000000000000000   15707.1862365849301568   17288.1819198757875711     300.0121037462990898 
     740     300.4175927328368516    1577.3281428705304279    1187.7863144131219997     393.1353866500268737       0.0000000000000000   15707.2634833557931415   17288.1851844189404801     300.0133246596534491 
     750     300.2911622005037202    1581.5508136501498484    1187.7199759345116945     392.9699358994200225       0.0000000000000000   15707.4894094798019069   17288.1793213137352723     300.0173662763996845 
     760     300.3506119313255454    1528.0180959346128020    1187.6484281985999587     393.0477335833048755       0.0000000000000000   15707.4860210370079585   17288.1821828189131338     300.0169082832139225 
     770     300.2858097238139408    1419.3792017555879283    1187.5804150895364728     392.9629314894124832       0.0000000000000000   15707.6422085143949516   17288.1855550933432824     300.0195434678656170 
     780     300.4553162698642836    1537.7795381609635115    1187.5103594894194430     393.1847527912710234       0.0000000000000000   15707.4832918057290954   17288.1784040864185954     300.0161444234005330 
     790     300.5592792418607928    1475.0780523714115589    1187.4385665126587810     393.3208018249555380       0.0000000000000000   15707.4275978904697695   17288.1869662280842022     300.0146752378349788 
     800     300.5841384486747643    1532.1493243318352597    1187.3648273495018657     393.3533333215091261       0.0000000000000000   15707.4725754595801845   17288.1907361305929953     300.0152131291188198 
     810     300.5475121418353410    1508.5984268206229899    1187.2955079430043952     393.3054030482854841       0.0000000000000000   15707.5931936089291412   17288.1941046002175426     300.0173285638938410 
     820     300.0293815492797194    1633.7657903472625094    1187.2273856013948716     392.6273619622539286       0.0000000000000000   15708.3319885479559161   17288.1867361116055690     300.0312547588882239 
     830     300.3142259672366094    1500.1719553858938525    1187.1560601292721913     393.0001178297445676       0.0000000000000000   15708.0277446511863673   17288.1839226102019893     300.0250910448191917 
     840     300.8147908309236982    1584.2417848955510635    1187.0840057246603010     393.6551718811364822       0.0000000000000000   15707.4436476384471462   17288.1828252442428493     300.0135655667341439 
     850     300.4727189394639595    1561.5384529712271160    1187.0102402106567752     393.2075264417073299       0.0000000000000000   15707.9722480415584869   17288.1900146939224214     300.0234393275532625 
     860     300.5870905205814552    1553.4268942553264878    1186.9351878851889524     393.3571964905063396       0.0000000000000000   15707.9000930091697228   17288.1924773848659243     300.0217699347875850 
     870     300.8555228486781061    1536.7033687719515456    1186.8615547143890581     393.7084750096358334       0.0000000000000000   15707.6179207826862694   17288.1879505067117861     300.0161178016493864 
     880     301.1965808179751320    1426.1192272098871854    1186.7874697521187954     394.1547936004012627       0.0000000000000000   15707.2475062838202575   17288.1897696363412251     300.0087892670907763 
     890     301.4954892780770592    1625.3782845930602434    1186.7112587132512544     394.5459540912572152       0.0000000000000000   15706.9343716921230225   17288.1915844966315490     300.0025840766535907 
     900     301.5566222440804154    1563.1598562469750959    1186.6331771144123195     394.6259545067061367       0.0000000000000000   15706.9340005587509950   17288.1931321798692807     300.0021488495441417 
     910     301.1463137811005026    1580.2850328867634744    1186.5523158811829489     394.0890126626150050       0.0000000000000000   15707.5493200869968859   17288.1906486307962041     300.0136040928464922 
     920     301.0283823432595796    1429.9938590193567052    1186.4667367324213956     393.9346840795515732       0.0000000000000000   15707.7937094909375446   17288.1951303029090923     300.0178432986854773 
     930     301.4070923579988630    1574.2451516846592767    1186.3815955311297330     394.4302752555489633       0.0000000000000000   15707.3896227330969850   17288.2014935197767045     300.0099547726920264 
     940     301.3953190144310952    1515.9755605867235317    1186.3061677476016484     394.4148683083939204       0.0000000000000000   15707.4755386458564317   17288.1965747018512047     300.0112181418413684 
     950     301.5745714041639758    1368.4471299949532295    1186.2369967130098303     394.6494433108247790       0.0000000000000000   15707.3118872925988398   17288.1983273164332786     300.0077320760434532 
     960     301.5716010243531855    1594.0459504724276485    1186.1734014822895915     394.6455561835603589       0.0000000000000000   15707.3877217897552327   17288.2066794556048990     300.0088466010042794 
     970     301.9400306285763804    1558.8658920953066627    1186.1111527353568817     395.1276941089461729       0.0000000000000000   15706.9656089842828806   17288.2044558285851963     300.0004786751674715 
     980     301.8600466712304069    1495.5917693962069279    1186.0520882108137357     395.0230247262014132       0.0000000000000000   15707.1263850466239091   17288.2014979836385464     300.0034619786923713 
     990     301.5423176319767435    1494.8834631516340323    1185.9946019728918145     394.6072350663461066       0.0000000000000000   15707.6010059323525638   17288.2028429715901439     300.0123579315995812 
    1000     301.3639191496744729    1550.7659919203797472    1185.9426228538156920     394.3737775125468374       0.0000000000000000   15707.8811157409618318   17288.1975161073241907     300.0174032764728622 
Loop time of 3.05465 on 8 procs for 1000 steps with 10125 atoms

Performance: 28.285 ns/day, 0.849 hours/ns, 327.370 timesteps/s
99.0% CPU use with 8 MPI tasks x no OpenMP threads

MPI task timing breakdown:
Section |  min time  |  avg time  |  max time  |%varavg| %total
---------------------------------------------------------------
Pair    | 1.4628     | 1.476      | 1.4902     |   0.9 | 48.32
Neigh   | 1.1923     | 1.2051     | 1.2199     |   0.9 | 39.45
Comm    | 0.33124    | 0.33333    | 0.33834    |   0.4 | 10.91
Output  | 0.0052199  | 0.0055176  | 0.0062327  |   0.4 |  0.18
Modify  | 0.022959   | 0.024103   | 0.027342   |   0.8 |  0.79
Other   |            | 0.01061    |            |       |  0.35

Nlocal:    1265.62 ave 1279 max 1258 min
Histogram: 2 1 1 1 0 2 0 0 0 1
Nghost:    1690.12 ave 1715 max 1674 min
Histogram: 2 0 0 2 2 1 0 0 0 1
Neighs:    14361.8 ave 14631 max 14202 min
Histogram: 2 2 1 0 0 0 2 0 0 1

Total # of neighbors = 114894
Ave neighs/atom = 11.3476
Neighbor list builds = 1000
Dangerous builds not checked
Total wall time: 0:00:03
