LAMMPS (30 Jul 2021)
# ReaxFF potential for TATB system
# this run is equivalent to reax/in.reax.tatb,

units		real

atom_style	charge
read_data	data.tatb
Reading data file ...
  triclinic box = (0.0000000 0.0000000 0.0000000) to (13.624000 17.114915 15.182639) with tilt (-5.7531563 -6.3254660 7.4257288)
  2 by 2 by 2 MPI processor grid
  reading atoms ...
  384 atoms
  read_data CPU = 0.003 seconds

pair_style      reax/c control.reax_c.tatb
WARNING: Ignoring inactive control parameter: simulation_name (src/REAXFF/reaxff_control.cpp:97)
WARNING: Ignoring inactive control parameter: energy_update_freq (src/REAXFF/reaxff_control.cpp:97)
WARNING: Support for writing native trajectories has been removed after LAMMPS version 8 April 2021 (src/REAXFF/reaxff_control.cpp:113)
WARNING: Ignoring inactive control parameter: traj_title (src/REAXFF/reaxff_control.cpp:97)
WARNING: Ignoring inactive control parameter: atom_info (src/REAXFF/reaxff_control.cpp:97)
WARNING: Ignoring inactive control parameter: atom_forces (src/REAXFF/reaxff_control.cpp:97)
WARNING: Ignoring inactive control parameter: atom_velocities (src/REAXFF/reaxff_control.cpp:97)
WARNING: Ignoring inactive control parameter: bond_info (src/REAXFF/reaxff_control.cpp:97)
WARNING: Ignoring inactive control parameter: angle_info (src/REAXFF/reaxff_control.cpp:97)
pair_coeff      * * ffield.reax C H O N
Reading potential file ffield.reax with DATE: 2010-02-19

compute reax all pair reax/c

variable eb  	 equal c_reax[1]
variable ea  	 equal c_reax[2]
variable elp 	 equal c_reax[3]
variable emol 	 equal c_reax[4]
variable ev 	 equal c_reax[5]
variable epen 	 equal c_reax[6]
variable ecoa 	 equal c_reax[7]
variable ehb 	 equal c_reax[8]
variable et 	 equal c_reax[9]
variable eco 	 equal c_reax[10]
variable ew 	 equal c_reax[11]
variable ep 	 equal c_reax[12]
variable efi 	 equal c_reax[13]
variable eqeq 	 equal c_reax[14]

neighbor	2.5 bin
neigh_modify	delay 0 every 5 check no

fix		1 all nve
fix             2 all qeq/reax 1 0.0 10.0 1.0e-6 reax/c
fix   		4 all reax/c/bonds 5 bonds.reaxc

thermo		5
thermo_style 	custom step temp epair etotal press 		v_eb v_ea v_elp v_emol v_ev v_epen v_ecoa 		v_ehb v_et v_eco v_ew v_ep v_efi v_eqeq

timestep	0.0625

#dump		1 all custom 100 dump.reaxc.tatb id type q x y z

#dump		2 all image 5 image.*.jpg type type #		axes yes 0.8 0.02 view 60 -30
#dump_modify	2 pad 3

#dump		3 all movie 5 movie.mpg type type #		axes yes 0.8 0.02 view 60 -30
#dump_modify	3 pad 3

fix 		3 all reax/c/species 1 5 5 species.tatb

run		25

CITE-CITE-CITE-CITE-CITE-CITE-CITE-CITE-CITE-CITE-CITE-CITE-CITE

Your simulation uses code contributions which should be cited:

- pair reaxff command:

@Article{Aktulga12,
 author = {H. M. Aktulga, J. C. Fogarty, S. A. Pandit, A. Y. Grama},
 title = {Parallel reactive molecular dynamics: Numerical methods and algorithmic techniques},
 journal = {Parallel Computing},
 year =    2012,
 volume =  38,
 pages =   {245--259}
}

- fix qeq/reaxff command:

@Article{Aktulga12,
 author = {H. M. Aktulga, J. C. Fogarty, S. A. Pandit, A. Y. Grama},
 title = {Parallel reactive molecular dynamics: Numerical methods and algorithmic techniques},
 journal = {Parallel Computing},
 year =    2012,
 volume =  38,
 pages =   {245--259}
}

CITE-CITE-CITE-CITE-CITE-CITE-CITE-CITE-CITE-CITE-CITE-CITE-CITE

Neighbor list info ...
  update every 5 steps, delay 0 steps, check no
  max neighbors/atom: 2000, page size: 100000
  master list distance cutoff = 12.5
  ghost atom cutoff = 12.5
  binsize = 6.25, bins = 5 4 3
  2 neighbor lists, perpetual/occasional/extra = 2 0 0
  (1) pair reax/c, perpetual
      attributes: half, newton off, ghost
      pair build: half/bin/newtoff/ghost
      stencil: full/ghost/bin/3d
      bin: standard
  (2) fix qeq/reax, perpetual, copy from (1)
      attributes: half, newton off, ghost
      pair build: copy
      stencil: none
      bin: none
Per MPI rank memory allocation (min/avg/max) = 84.95 | 84.95 | 84.95 Mbytes
Step Temp E_pair TotEng Press v_eb v_ea v_elp v_emol v_ev v_epen v_ecoa v_ehb v_et v_eco v_ew v_ep v_efi v_eqeq 
       0            0   -44760.998   -44760.998    7827.7868   -61120.591     486.4378    4.7236377            0    1574.1033    20.788929   -279.51642   -1556.4696    252.57147   -655.84699    18862.412   -8740.6397            0    6391.0277 
       5   0.61603968   -44761.698   -44760.994    8934.6292   -61118.769    486.81263    4.7234094            0    1573.9241    20.768834   -278.24084   -1557.6713    252.64377   -655.74435    18859.379   -8738.1911            0    6388.6672 
      10    2.3525549   -44763.227   -44760.541    12288.584   -61113.174    487.82738    4.7226863            0     1573.411    20.705939   -274.50357   -1560.7569    252.85309   -655.44063    18850.391   -8730.9753            0    6381.7131 
      15    4.9013239    -44766.36   -44760.764    17716.895   -61103.434    489.14722    4.7213644            0    1572.6349    20.593139   -268.56847   -1566.3829    252.95174   -654.96611    18835.777   -8719.2731            0    6370.4393 
      20    7.8294561   -44769.686   -44760.747    25205.597   -61089.006    490.21314     4.719302            0    1571.7022    20.420943   -260.85565   -1573.7378     253.3539   -654.31623     18816.07   -8703.4986            0    6355.2498 
      25    10.697904   -44772.904   -44760.691    34232.842   -61069.308    490.25887    4.7163736            0    1570.7397    20.181346   -251.91378   -1582.3261    253.82253   -653.53184    18791.975   -8684.3383            0    6336.8192 
Loop time of 1.62954 on 8 procs for 25 steps with 384 atoms

Performance: 0.083 ns/day, 289.695 hours/ns, 15.342 timesteps/s
98.4% CPU use with 8 MPI tasks x no OpenMP threads

MPI task timing breakdown:
Section |  min time  |  avg time  |  max time  |%varavg| %total
---------------------------------------------------------------
Pair    | 1.1111     | 1.1683     | 1.2243     |   4.7 | 71.70
Neigh   | 0.19012    | 0.19996    | 0.20939    |   2.1 | 12.27
Comm    | 0.026235   | 0.082146   | 0.13931    |  17.7 |  5.04
Output  | 0.00050349 | 0.0025552  | 0.0050391  |   2.9 |  0.16
Modify  | 0.16525    | 0.17607    | 0.18663    |   2.1 | 10.80
Other   |            | 0.0004911  |            |       |  0.03

Nlocal:        48.0000 ave          48 max          48 min
Histogram: 8 0 0 0 0 0 0 0 0 0
Nghost:        4291.00 ave        4291 max        4291 min
Histogram: 8 0 0 0 0 0 0 0 0 0
Neighs:        40921.0 ave       40921 max       40921 min
Histogram: 8 0 0 0 0 0 0 0 0 0

Total # of neighbors = 327368
Ave neighs/atom = 852.52083
Neighbor list builds = 5
Dangerous builds not checked
Total wall time: 0:00:01
