LAMMPS (4 Jan 2019)
# ReaxFF potential for RDX system
# this run is equivalent to reax/in.reax.rdx

units		real

atom_style	charge
read_data	data.rdx
  orthogonal box = (35 35 35) to (48 48 48)
  2 by 2 by 2 MPI processor grid
  reading atoms ...
  21 atoms

pair_style      reax/c control.reax_c.rdx
pair_coeff      * * ffield.reax C H O N
Reading potential file ffield.reax with DATE: 2010-02-19

compute reax all pair reax/c

variable eb  	 equal c_reax[1]
variable ea  	 equal c_reax[2]
variable elp 	 equal c_reax[3]
variable emol 	 equal c_reax[4]
variable ev 	 equal c_reax[5]
variable epen 	 equal c_reax[6]
variable ecoa 	 equal c_reax[7]
variable ehb 	 equal c_reax[8]
variable et 	 equal c_reax[9]
variable eco 	 equal c_reax[10]
variable ew 	 equal c_reax[11]
variable ep 	 equal c_reax[12]
variable efi 	 equal c_reax[13]
variable eqeq 	 equal c_reax[14]

neighbor	2.5 bin
neigh_modify	every 10 delay 0 check no

fix		1 all nve
fix             2 all qeq/reax 1 0.0 10.0 1.0e-6 reax/c

thermo		10
thermo_style 	custom step temp epair etotal press 		v_eb v_ea v_elp v_emol v_ev v_epen v_ecoa 		v_ehb v_et v_eco v_ew v_ep v_efi v_eqeq

timestep	1.0

#dump		1 all atom 10 dump.reaxc.rdx

#dump		2 all image 25 image.*.jpg type type #		axes yes 0.8 0.02 view 60 -30
#dump_modify	2 pad 3

#dump		3 all movie 25 movie.mpg type type #		axes yes 0.8 0.02 view 60 -30
#dump_modify	3 pad 3

run		100
Neighbor list info ...
  update every 10 steps, delay 0 steps, check no
  max neighbors/atom: 2000, page size: 100000
  master list distance cutoff = 12.5
  ghost atom cutoff = 12.5
  binsize = 6.25, bins = 3 3 3
  2 neighbor lists, perpetual/occasional/extra = 2 0 0
  (1) pair reax/c, perpetual
      attributes: half, newton off, ghost
      pair build: half/bin/newtoff/ghost
      stencil: half/ghost/bin/3d/newtoff
      bin: standard
  (2) fix qeq/reax, perpetual, copy from (1)
      attributes: half, newton off, ghost
      pair build: copy
      stencil: none
      bin: none
Per MPI rank memory allocation (min/avg/max) = 8.966 | 10.44 | 12.19 Mbytes
Step Temp E_pair TotEng Press v_eb v_ea v_elp v_emol v_ev v_epen v_ecoa v_ehb v_et v_eco v_ew v_ep v_efi v_eqeq 
       0            0   -1884.3081   -1884.3081    27186.182   -2958.4712    79.527715   0.31082031            0    98.589783    25.846176  -0.18034154            0    16.709078   -9.1620736    938.43732   -244.79915            0     168.8838 
      10    1288.6115   -1989.6644   -1912.8422   -19456.349   -2734.6769   -15.607219   0.20177961            0    54.629554    3.1252297     -77.7067            0    14.933901   -5.8108539    843.92074   -180.43321            0    107.75934 
      20    538.95841   -1942.7037   -1910.5731   -10725.673   -2803.7395    7.9078314   0.07792667            0    81.610049   0.22951932   -57.557102            0    30.331204   -10.178049    878.99014   -159.69248            0    89.316715 
      30    463.09519   -1933.5765   -1905.9685   -33255.516   -2749.8591   -8.0154606  0.027628799            0      81.6274   0.11972401   -50.262282            0    20.820316    -9.632703    851.88721   -149.49493            0    79.205663 
      40    885.49427   -1958.9125   -1906.1227   -4814.6566    -2795.644    9.1506343   0.13747492            0    70.948031   0.24360521   -57.862681            0    19.076506   -11.141214    873.73895   -159.99392            0    92.434077 
      50    861.16509     -1954.46   -1903.1206   -1896.7193    -2784.845    3.8270386   0.15793276            0    79.851793    3.3492144   -78.066133            0    32.628999   -7.9565388    872.81846   -190.98569            0    114.75997 
      60    1167.7854   -1971.8431   -1902.2241    -3482.816   -2705.8631   -17.121696   0.22749066            0    44.507689    7.8560434   -74.788984            0    16.256485   -4.6046488    835.83043   -188.33686            0    114.19409 
      70    1439.9951   -1989.3023   -1903.4552    23845.421   -2890.7895     31.95883   0.26671722            0    85.758685    3.1803555   -71.002899            0    24.357148   -10.311311    905.86791   -175.38476            0    106.79653 
      80    502.39708   -1930.7545   -1900.8035   -20356.438   -2703.8104   -18.662818   0.11286103            0    99.804041    2.0329244   -76.171331            0    19.236809   -6.2786452    826.47395   -166.03138            0    92.539517 
      90     749.0928   -1946.9838   -1902.3257    17798.748   -2863.7582      42.0687   0.24338065            0    96.181805   0.96184253   -69.955553            0    24.615419   -11.582752    903.68857   -190.13844            0    120.69142 
     100    1109.7005   -1968.5874   -1902.4313   -4490.2835   -2755.8963    -7.123176   0.21757697            0    61.806124    7.0826933   -75.645402            0    20.114988   -6.2371874    863.56338   -198.56963            0    122.09948 
Loop time of 0.267289 on 8 procs for 100 steps with 21 atoms

Performance: 32.325 ns/day, 0.742 hours/ns, 374.128 timesteps/s
99.2% CPU use with 8 MPI tasks x no OpenMP threads

MPI task timing breakdown:
Section |  min time  |  avg time  |  max time  |%varavg| %total
---------------------------------------------------------------
Pair    | 0.1765     | 0.17714    | 0.17896    |   0.2 | 66.27
Neigh   | 0.0024984  | 0.0037036  | 0.0050836  |   1.2 |  1.39
Comm    | 0.0052384  | 0.0070809  | 0.0077626  |   0.9 |  2.65
Output  | 0.00042923 | 0.00049925 | 0.00065219 |   0.0 |  0.19
Modify  | 0.077391   | 0.078793   | 0.080104   |   0.3 | 29.48
Other   |            | 6.799e-05  |            |       |  0.03

Nlocal:    2.625 ave 9 max 0 min
Histogram: 4 0 0 2 0 0 1 0 0 1
Nghost:    283 ave 378 max 200 min
Histogram: 1 0 2 1 0 1 2 0 0 1
Neighs:    156.125 ave 526 max 0 min
Histogram: 4 0 0 2 0 0 1 0 0 1

Total # of neighbors = 1249
Ave neighs/atom = 59.4762
Neighbor list builds = 10
Dangerous builds not checked

Please see the log.cite file for references relevant to this simulation

Total wall time: 0:00:00
