LAMMPS (4 Jan 2019)
# sample LAMMPS input script for diffusion of 2d LJ liquid
# mean-squared displacement via compute msd

# settings

variable	x equal 40
variable	y equal 40

variable	rho equal 0.6
variable        t equal 1.0
variable	rc equal 2.5

# problem setup

units		lj
dimension	2
atom_style	atomic
neigh_modify	delay 0 every 1

lattice         sq2 ${rho}
lattice         sq2 0.6
Lattice spacing in x,y,z = 1.82574 1.82574 1.82574
region          simbox block 0 $x 0 $y -0.1 0.1
region          simbox block 0 40 0 $y -0.1 0.1
region          simbox block 0 40 0 40 -0.1 0.1
create_box      1 simbox
Created orthogonal box = (0 0 -0.182574) to (73.0297 73.0297 0.182574)
  4 by 2 by 1 MPI processor grid
create_atoms    1 box
Created 3200 atoms
  Time spent = 0.00106302 secs

pair_style      lj/cut ${rc}
pair_style      lj/cut 2.5
pair_coeff      * * 1 1

mass            * 1.0
velocity        all create $t 97287
velocity        all create 1 97287

fix             1 all nve
fix	        2 all langevin $t $t 0.1 498094
fix	        2 all langevin 1 $t 0.1 498094
fix	        2 all langevin 1 1 0.1 498094
fix	        3 all enforce2d

# equilibration run

thermo          1000
run	        5000
Neighbor list info ...
  update every 1 steps, delay 0 steps, check yes
  max neighbors/atom: 2000, page size: 100000
  master list distance cutoff = 2.8
  ghost atom cutoff = 2.8
  binsize = 1.4, bins = 53 53 1
  1 neighbor lists, perpetual/occasional/extra = 1 0 0
  (1) pair lj/cut, perpetual
      attributes: half, newton on
      pair build: half/bin/atomonly/newton
      stencil: half/bin/2d/newton
      bin: standard
Per MPI rank memory allocation (min/avg/max) = 3.052 | 3.052 | 3.052 Mbytes
Step Temp E_pair E_mol TotEng Press 
       0            1     -1.56492            0   -0.5652325   -1.5346995 
    1000   0.97537833   -1.5723957            0   -0.5973222   0.92877783 
    2000   0.99008371   -1.5748206            0  -0.58504633    1.0809416 
    3000    1.0111412   -1.5848987            0  -0.57407352    1.0174297 
    4000    1.0055417   -1.5857581            0  -0.58053054   0.95647691 
    5000   0.97069905   -1.5851114            0  -0.61471567   0.90108287 
Loop time of 0.616625 on 8 procs for 5000 steps with 3200 atoms

Performance: 3502940.603 tau/day, 8108.659 timesteps/s
99.9% CPU use with 8 MPI tasks x no OpenMP threads

MPI task timing breakdown:
Section |  min time  |  avg time  |  max time  |%varavg| %total
---------------------------------------------------------------
Pair    | 0.21363    | 0.22548    | 0.23762    |   2.0 | 36.57
Neigh   | 0.06893    | 0.072979   | 0.07702    |   1.2 | 11.84
Comm    | 0.10599    | 0.12044    | 0.13783    |   3.7 | 19.53
Output  | 0.00010987 | 0.00013093 | 0.00015709 |   0.0 |  0.02
Modify  | 0.14148    | 0.15307    | 0.17361    |   2.5 | 24.82
Other   |            | 0.04453    |            |       |  7.22

Nlocal:    400 ave 406 max 394 min
Histogram: 1 1 0 1 0 2 1 0 1 1
Nghost:    202.5 ave 212 max 191 min
Histogram: 1 0 0 0 3 1 0 2 0 1
Neighs:    2800.88 ave 2903 max 2690 min
Histogram: 1 1 0 0 1 2 1 0 1 1

Total # of neighbors = 22407
Ave neighs/atom = 7.00219
Neighbor list builds = 599
Dangerous builds = 0

unfix		2

# data gathering run

reset_timestep  0

compute         vacf all vacf
fix             4 all ave/time 1 1 1 c_vacf[4] #file tmp.vacf

# factor of 0.5 is for 2d

fix             5 all vector 1 c_vacf[4]
variable        vacf equal 0.5*dt*trap(f_5)

thermo_style	custom step temp c_vacf[4] v_vacf

# only need to run for 10K steps to make a good 100-frame movie

#dump	        1 all custom 1 tmp.dump id type vx vy vz

#dump		2 all image 100 image.*.jpg type type zoom 1.6 adiam 1.2

thermo          1000
run	        10000
Per MPI rank memory allocation (min/avg/max) = 3.427 | 3.427 | 3.427 Mbytes
Step Temp c_vacf[4] v_vacf 
       0   0.97069905    1.9407914            0 
    1000   0.98138076  0.029239763   0.22157396 
    2000   0.97606079 -0.0015179052   0.23974121 
    3000   0.97924866 -0.013873067   0.21877575 
    4000   0.98568451  0.026969065   0.24052934 
    5000   0.97551815  0.050232557   0.24508207 
    6000   0.98482252 -0.0018424259   0.25686293 
    7000    0.9672559  0.018499957   0.27279836 
    8000    0.9836541 -0.022683127   0.27022734 
    9000   0.99087147 0.0071767632   0.25267902 
   10000   0.99663166 -0.011971734    0.2645822 
Loop time of 1.0947 on 8 procs for 10000 steps with 3200 atoms

Performance: 3946284.446 tau/day, 9134.918 timesteps/s
99.9% CPU use with 8 MPI tasks x no OpenMP threads

MPI task timing breakdown:
Section |  min time  |  avg time  |  max time  |%varavg| %total
---------------------------------------------------------------
Pair    | 0.44456    | 0.46589    | 0.49127    |   2.1 | 42.56
Neigh   | 0.15692    | 0.15973    | 0.1638     |   0.6 | 14.59
Comm    | 0.20688    | 0.23069    | 0.2592     |   3.4 | 21.07
Output  | 0.0004352  | 0.00044356 | 0.00047478 |   0.0 |  0.04
Modify  | 0.18125    | 0.18619    | 0.19184    |   0.8 | 17.01
Other   |            | 0.05176    |            |       |  4.73

Nlocal:    400 ave 407 max 394 min
Histogram: 2 1 0 1 0 0 2 0 0 2
Nghost:    202.25 ave 210 max 186 min
Histogram: 1 0 0 0 0 2 0 1 3 1
Neighs:    2813.88 ave 2935 max 2713 min
Histogram: 2 1 0 2 0 0 0 0 1 2

Total # of neighbors = 22511
Ave neighs/atom = 7.03469
Neighbor list builds = 1264
Dangerous builds = 0
Total wall time: 0:00:01
