LAMMPS (4 Jan 2019)
# sample LAMMPS input script for diffusion of 2d LJ liquid
# mean-squared displacement via compute msd

# settings

variable	x equal 40
variable	y equal 40

variable	rho equal 0.6
variable        t equal 1.0
variable	rc equal 2.5

# problem setup

units		lj
dimension	2
atom_style	atomic
neigh_modify	delay 0 every 1

lattice         sq2 ${rho}
lattice         sq2 0.6
Lattice spacing in x,y,z = 1.82574 1.82574 1.82574
region          simbox block 0 $x 0 $y -0.1 0.1
region          simbox block 0 40 0 $y -0.1 0.1
region          simbox block 0 40 0 40 -0.1 0.1
create_box      1 simbox
Created orthogonal box = (0 0 -0.182574) to (73.0297 73.0297 0.182574)
  4 by 2 by 1 MPI processor grid
create_atoms    1 box
Created 3200 atoms
  Time spent = 0.000699672 secs

pair_style      lj/cut ${rc}
pair_style      lj/cut 2.5
pair_coeff      * * 1 1

mass            * 1.0
velocity        all create $t 97287
velocity        all create 1 97287

fix             1 all nve
fix	        2 all langevin $t $t 0.1 498094
fix	        2 all langevin 1 $t 0.1 498094
fix	        2 all langevin 1 1 0.1 498094
fix	        3 all enforce2d

# equilibration run

thermo          1000
run	        5000
Neighbor list info ...
  update every 1 steps, delay 0 steps, check yes
  max neighbors/atom: 2000, page size: 100000
  master list distance cutoff = 2.8
  ghost atom cutoff = 2.8
  binsize = 1.4, bins = 53 53 1
  1 neighbor lists, perpetual/occasional/extra = 1 0 0
  (1) pair lj/cut, perpetual
      attributes: half, newton on
      pair build: half/bin/atomonly/newton
      stencil: half/bin/2d/newton
      bin: standard
Per MPI rank memory allocation (min/avg/max) = 3.052 | 3.052 | 3.052 Mbytes
Step Temp E_pair E_mol TotEng Press 
       0            1     -1.56492            0   -0.5652325   -1.5346995 
    1000   0.97537833   -1.5723957            0   -0.5973222   0.92877783 
    2000   0.99008371   -1.5748206            0  -0.58504633    1.0809416 
    3000    1.0111412   -1.5848987            0  -0.57407352    1.0174297 
    4000    1.0055417   -1.5857581            0  -0.58053054   0.95647691 
    5000   0.97069905   -1.5851114            0  -0.61471567   0.90108287 
Loop time of 0.596369 on 8 procs for 5000 steps with 3200 atoms

Performance: 3621919.810 tau/day, 8384.074 timesteps/s
99.8% CPU use with 8 MPI tasks x no OpenMP threads

MPI task timing breakdown:
Section |  min time  |  avg time  |  max time  |%varavg| %total
---------------------------------------------------------------
Pair    | 0.20257    | 0.21672    | 0.23431    |   2.7 | 36.34
Neigh   | 0.065251   | 0.071119   | 0.076547   |   1.5 | 11.93
Comm    | 0.10142    | 0.12353    | 0.14334    |   4.6 | 20.71
Output  | 0.00011505 | 0.00012958 | 0.00015125 |   0.0 |  0.02
Modify  | 0.13415    | 0.14344    | 0.15597    |   2.3 | 24.05
Other   |            | 0.04143    |            |       |  6.95

Nlocal:    400 ave 406 max 394 min
Histogram: 1 1 0 1 0 2 1 0 1 1
Nghost:    202.5 ave 212 max 191 min
Histogram: 1 0 0 0 3 1 0 2 0 1
Neighs:    2800.88 ave 2903 max 2690 min
Histogram: 1 1 0 0 1 2 1 0 1 1

Total # of neighbors = 22407
Ave neighs/atom = 7.00219
Neighbor list builds = 599
Dangerous builds = 0

unfix		2

# data gathering run

reset_timestep  0

# factor of 4 in 2 variables is for 2d

compute         msd all msd com yes
variable        twopoint equal c_msd[4]/4/(step*dt+1.0e-6)
fix             9 all vector 10 c_msd[4]
variable        fitslope equal slope(f_9)/4/(10*dt)

thermo_style	custom step temp c_msd[4] v_twopoint v_fitslope

# only need to run for 10K steps to make a good 100-frame movie

#dump	        1 all custom 1 tmp.dump id type vx vy vz

#dump		2 all image 100 image.*.jpg type type zoom 1.6 adiam 1.2

thermo          1000
run	        10000
Per MPI rank memory allocation (min/avg/max) = 3.427 | 3.427 | 3.427 Mbytes
Step Temp c_msd[4] v_twopoint v_fitslope 
       0   0.97069905            0            0        5e+20 
    1000   0.98138076    4.0484996   0.20242494   0.20685564 
    2000   0.97606079    9.2121392   0.23030346   0.23687918 
    3000   0.97924866    14.815034   0.24691721   0.25405247 
    4000   0.98568451    20.516817   0.25646019   0.26353644 
    5000   0.97551815     27.33922   0.27339219   0.27544492 
    6000   0.98482252     34.37734   0.28647782   0.28966619 
    7000    0.9672559    41.696689   0.29783348   0.30165524 
    8000    0.9836541    48.340277   0.30212673   0.31085371 
    9000   0.99087147    56.042692   0.31134828   0.31811489 
   10000   0.99663166     63.69663   0.31848314   0.32589374 
Loop time of 1.05611 on 8 procs for 10000 steps with 3200 atoms

Performance: 4090502.070 tau/day, 9468.755 timesteps/s
100.0% CPU use with 8 MPI tasks x no OpenMP threads

MPI task timing breakdown:
Section |  min time  |  avg time  |  max time  |%varavg| %total
---------------------------------------------------------------
Pair    | 0.42103    | 0.45754    | 0.4836     |   2.8 | 43.32
Neigh   | 0.14603    | 0.16012    | 0.17707    |   2.3 | 15.16
Comm    | 0.24168    | 0.27073    | 0.32574    |   5.4 | 25.63
Output  | 0.00038861 | 0.00040609 | 0.00043522 |   0.0 |  0.04
Modify  | 0.092157   | 0.097929   | 0.10087    |   1.0 |  9.27
Other   |            | 0.06938    |            |       |  6.57

Nlocal:    400 ave 407 max 394 min
Histogram: 2 1 0 1 0 0 2 0 0 2
Nghost:    202.25 ave 210 max 186 min
Histogram: 1 0 0 0 0 2 0 1 3 1
Neighs:    2813.88 ave 2935 max 2713 min
Histogram: 2 1 0 2 0 0 0 0 1 2

Total # of neighbors = 22511
Ave neighs/atom = 7.03469
Neighbor list builds = 1264
Dangerous builds = 0
Total wall time: 0:00:01
