LAMMPS (28 Mar 2023 - Development)
# 3D copper block simulation
boundary    p p p
units       metal
atom_style  atomic

# geometry
read_data	data.pos
Reading data file ...
  triclinic box = (0 0 0) to (20.449528 17.709811 16.69697) with tilt (10.224764 10.224764 5.9032703)
WARNING: Triclinic box skew is large. LAMMPS will run inefficiently. (src/domain.cpp:220)
  2 by 2 by 2 MPI processor grid
  reading atoms ...
  512 atoms
  read_data CPU = 0.010 seconds

# EAM potential
pair_style  	eam/opt
pair_coeff   	* * cuu3.eam
neighbor       0.5 nsq
neigh_modify   every 1 delay 0 check yes

#Langevin random seed
variable r equal 57085
variable t equal 300
variable d equal 1

# initialize
velocity all create $t 28459 rot yes dist gaussian mom yes
velocity all create 300 28459 rot yes dist gaussian mom yes
reset_timestep 0

# fixes
fix      1 all npt temp $t $t $d iso 1. 1. 1. pchain 8 drag 1.0
fix      1 all npt temp 300 $t $d iso 1. 1. 1. pchain 8 drag 1.0
fix      1 all npt temp 300 300 $d iso 1. 1. 1. pchain 8 drag 1.0
fix      1 all npt temp 300 300 1 iso 1. 1. 1. pchain 8 drag 1.0
fix      2 all phonon 10 50000 500000 map.in CuPhonon

#
timestep 2e-3

# output
#                    1    2    3  4  5     6   7  8  9  10 11 12
thermo_style  custom step temp pe ke press vol lx ly lz xy xz yz
thermo  100

restart 2000000 restart.one restart.two

# execution
run 	 65000

CITE-CITE-CITE-CITE-CITE-CITE-CITE-CITE-CITE-CITE-CITE-CITE-CITE

Your simulation uses code contributions which should be cited:

- fix phonon command: doi:10.1016/j.cpc.2011.04.019

@Article{Kong11,
 author = {L. T. Kong},
 title = {Phonon Dispersion Measured Directly from Molecular Dynamics Simulations},
 journal = {Comput.\ Phys.\ Commun.},
 year =    2011,
 volume =  182,
 pages =   {2201--2207}
}

CITE-CITE-CITE-CITE-CITE-CITE-CITE-CITE-CITE-CITE-CITE-CITE-CITE

Neighbor list info ...
  update: every = 1 steps, delay = 0 steps, check = yes
  max neighbors/atom: 2000, page size: 100000
  master list distance cutoff = 5.45
  ghost atom cutoff = 5.45
  1 neighbor lists, perpetual/occasional/extra = 1 0 0
  (1) pair eam/opt, perpetual
      attributes: half, newton on
      pair build: half/nsq/newton
      stencil: none
      bin: none
Per MPI rank memory allocation (min/avg/max) = 3.53 | 3.53 | 3.53 Mbytes
   Step          Temp          PotEng         KinEng         Press          Volume           Lx             Ly             Lz             Xy             Xz             Yz      
         0   300           -1812.48        19.81558       3500.1579      6046.9291      20.449528      17.709811      16.69697       10.224764      10.224764      5.9032703    
       100   153.63448     -1802.7317      10.147854      9986.2625      6046.0365      20.448522      17.708939      16.696148      10.224261      10.224261      5.9029798    
       200   147.67118     -1802.0348      9.7539669      6250.7952      6065.0621      20.469948      17.727495      16.713643      10.234974      10.234974      5.9091651    
       300   159.47212     -1802.4461      10.533442      1407.8811      6085.0856      20.492451      17.746983      16.732016      10.246225      10.246225      5.9156609    
       400   153.03918     -1801.6604      10.108534     -1164.3781      6098.8523      20.507893      17.760356      16.744624      10.253946      10.253946      5.9201187    
       500   161.89469     -1801.8447      10.693457     -3350.4327      6108.9732      20.519231      17.770175      16.753882      10.259615      10.259615      5.9233917    
       600   153.61967     -1800.8794      10.146877     -2833.6922      6109.6921      20.520036      17.770872      16.754539      10.260018      10.260018      5.923624     
       700   160.07666     -1800.886       10.573373     -2267.0751      6107.398       20.517467      17.768647      16.752441      10.258733      10.258733      5.9228825    
       800   165.71773     -1800.8388      10.945977     -973.14295      6102.1475      20.511586      17.763554      16.747639      10.255793      10.255793      5.9211847    
       900   183.16791     -1801.5704      12.098595     -481.2926       6098.6552      20.507672      17.760165      16.744444      10.253836      10.253836      5.9200549    
      1000   162.12784     -1799.7527      10.708858      2655.8292      6089.4695      20.497371      17.751244      16.736033      10.248685      10.248685      5.9170812    
      1100   179.7893      -1800.4849      11.875431      2041.5581      6090.4382      20.498457      17.752185      16.73692       10.249229      10.249229      5.9173949    
      1200   189.40512     -1800.6902      12.510574      1072.3926      6094.0895      20.502553      17.755732      16.740264      10.251276      10.251276      5.9185772    
      1300   183.89007     -1799.8915      12.146295      1062.6167      6096.4993      20.505255      17.758072      16.742471      10.252628      10.252628      5.9193573    
      1400   182.98401     -1799.4048      12.086448      612.90571      6100.5194      20.509761      17.761974      16.74615       10.254881      10.254881      5.9206581    
      1500   185.76648     -1799.1565      12.270235     -32.923091      6104.4764      20.514195      17.765814      16.74977       10.257097      10.257097      5.9219379    
      1600   193.85333     -1799.2602      12.804387     -672.5541       6107.52        20.517603      17.768766      16.752553      10.258802      10.258802      5.9229219    
      1700   195.53426     -1798.9412      12.915416     -463.8752       6107.7393      20.517849      17.768978      16.752754      10.258924      10.258924      5.9229928    
      1800   204.43771     -1799.105       13.503506     -1167.5521      6111.2648      20.521796      17.772397      16.755976      10.260898      10.260898      5.9241322    
      1900   186.79101     -1797.5108      12.337907      78.609966      6109.9579      20.520333      17.77113       16.754782      10.260166      10.260166      5.9237099    
      2000   201.14689     -1798.0381      13.286141     -773.51529      6112.8932      20.523619      17.773975      16.757464      10.261809      10.261809      5.9246584    
      2100   216.67928     -1798.642       14.312086     -1000.6092      6112.4074      20.523075      17.773504      16.75702       10.261537      10.261537      5.9245014    
      2200   201.77325     -1797.2415      13.327513      1155.3349      6106.66        20.51664       17.767932      16.751767      10.25832       10.25832       5.9226439    
      2300   219.0735      -1797.967       14.470229      630.75786      6107.7431      20.517853      17.768982      16.752757      10.258927      10.258927      5.922994     
      2400   217.77445     -1797.4742      14.384424      1198.4679      6106.7585      20.516751      17.768027      16.751857      10.258375      10.258375      5.9226758    
      2500   221.50232     -1797.3153      14.630657      1042.4014      6108.4131      20.518603      17.769632      16.75337       10.259302      10.259302      5.9232106    
      2600   216.55231     -1796.59        14.303699      1012.7622      6111.2887      20.521823      17.77242       16.755998      10.260911      10.260911      5.92414      
      2700   229.14216     -1797.0232      15.135283     -1003.8541      6119.1761      20.530648      17.780062      16.763204      10.265324      10.265324      5.9266875    
      2800   222.25966     -1796.1788      14.68068      -1125.6697      6121.6448      20.533408      17.782453      16.765458      10.266704      10.266704      5.9274844    
      2900   237.62264     -1796.8067      15.695435     -2270.1682      6125.7789      20.538029      17.786455      16.769231      10.269015      10.269015      5.9288184    
      3000   227.45917     -1795.7564      15.024118     -941.71894      6123.0716      20.535003      17.783835      16.76676       10.267502      10.267502      5.9279449    
      3100   232.68181     -1795.7269      15.369084     -423.26342      6121.4204      20.533157      17.782236      16.765253      10.266579      10.266579      5.9274119    
      3200   245.29202     -1796.1941      16.202012     -303.98063      6119.194       20.530668      17.78008       16.76322       10.265334      10.265334      5.9266933    
      3300   249.66918     -1796.1207      16.491132      582.50225      6116.6165      20.527785      17.777583      16.760866      10.263892      10.263892      5.925861     
      3400   253.0533      -1795.9899      16.71466       1132.7509      6114.7857      20.525736      17.775809      16.759194      10.262868      10.262868      5.9252697    
      3500   249.97708     -1795.4408      16.51147       1194.5604      6116.0069      20.527103      17.776992      16.760309      10.263551      10.263551      5.9256641    
      3600   265.02578     -1796.0966      17.505465     -642.3017       6122.8558      20.534762      17.783626      16.766563      10.267381      10.267381      5.9278752    
      3700   250.97751     -1794.8346      16.57755      -458.00727      6125.888       20.538151      17.786561      16.76933       10.269076      10.269076      5.9288536    
      3800   247.00846     -1794.2486      16.315386      272.60882      6124.0609      20.536109      17.784792      16.767663      10.268055      10.268055      5.9282641    
      3900   259.11124     -1794.7316      17.114799     -110.56674      6125.1921      20.537374      17.785887      16.768695      10.268687      10.268687      5.9286291    
      4000   263.88877     -1794.7414      17.430364      81.600833      6124.1127      20.536167      17.784843      16.76771       10.268084      10.268084      5.9282808    
      4100   267.37784     -1794.6724      17.660823      126.96443      6124.3198      20.536399      17.785043      16.767899      10.268199      10.268199      5.9283476    
      4200   262.32294     -1794.0483      17.326938      149.22636      6126.2494      20.538555      17.786911      16.76966       10.269278      10.269278      5.9289702    
      4300   258.83395     -1793.5345      17.096483      70.363545      6128.4149      20.540975      17.789006      16.771636      10.270487      10.270487      5.9296687    
      4400   266.20763     -1793.748       17.583529     -161.64188      6128.6329      20.541218      17.789217      16.771835      10.270609      10.270609      5.929739     
      4500   268.26448     -1793.6199      17.719388      130.09322      6127.9152      20.540417      17.788523      16.77118       10.270208      10.270208      5.9295075    
      4600   283.04422     -1794.3404      18.695618     -881.69986      6130.927       20.543781      17.791436      16.773927      10.271891      10.271891      5.9304788    
      4700   264.87028     -1792.8951      17.495194      547.86895      6128.9644      20.541589      17.789538      16.772137      10.270794      10.270794      5.9298459    
      4800   282.82949     -1793.8457      18.681435     -347.39286      6130.8644      20.543711      17.791376      16.77387       10.271856      10.271856      5.9304586    
      4900   274.46286     -1793.0634      18.128803      846.13766      6128.2318      20.54077       17.788829      16.771469      10.270385      10.270385      5.9296096    
      5000   290.82458     -1793.9284      19.209526     -215.35877      6130.7309      20.543562      17.791247      16.773748      10.271781      10.271781      5.9304156    
      5100   293.73606     -1793.912       19.401835     -674.91605      6133.2595      20.546386      17.793692      16.776054      10.273193      10.273193      5.9312308    
      5200   281.88317     -1792.9324      18.618928      588.04634      6129.8906      20.542624      17.790434      16.772982      10.271312      10.271312      5.9301446    
      5300   285.79998     -1793.0013      18.877641      1099.0797      6127.4772      20.539927      17.788099      16.77078       10.269964      10.269964      5.9293663    
      5400   289.25189     -1793.0535      19.105647      955.36781      6128.5066      20.541077      17.789095      16.771719      10.270539      10.270539      5.9296983    
      5500   296.41797     -1793.3564      19.57898       42.362007      6130.8693      20.543717      17.791381      16.773874      10.271858      10.271858      5.9304602    
      5600   284.76969     -1792.4236      18.809589      529.61772      6132.305       20.54532       17.792769      16.775184      10.27266       10.27266       5.9309231    
      5700   283.13897     -1792.1651      18.701877      1040.2924      6130.6492      20.543471      17.791168      16.773674      10.271735      10.271735      5.9303892    
      5800   287.17627     -1792.2904      18.968548      140.27482      6134.3541      20.547608      17.794751      16.777052      10.273804      10.273804      5.9315836    
      5900   296.17446     -1792.7527      19.562896     -1102.4808      6138.5237      20.552263      17.798782      16.780852      10.276131      10.276131      5.9329272    
      6000   283.81144     -1791.813       18.746295     -834.75543      6139.8091      20.553697      17.800024      16.782023      10.276849      10.276849      5.9333413    
      6100   290.33653     -1792.1321      19.177289     -1443.6424      6142.4865      20.556684      17.802611      16.784463      10.278342      10.278342      5.9342036    
      6200   288.14384     -1791.8872      19.032458     -459.28927      6138.8614      20.55264       17.799108      16.78116       10.27632       10.27632       5.933036     
      6300   301.36474     -1792.6685      19.905724     -762.76882      6138.022       20.551703      17.798297      16.780395      10.275851      10.275851      5.9327656    
      6400   296.7044      -1792.2739      19.5979       -206.46928      6136.1468      20.54961       17.796484      16.778686      10.274805      10.274805      5.9321614    
      6500   308.99312     -1793.0099      20.409593     -807.24483      6137.0899      20.550662      17.797396      16.779546      10.275331      10.275331      5.9324653    
      6600   308.46252     -1792.9063      20.374546     -772.73249      6136.5906      20.550105      17.796913      16.779091      10.275053      10.275053      5.9323044    
      6700   293.66094     -1791.8669      19.396873      633.80048      6134.1814      20.547416      17.794584      16.776895      10.273708      10.273708      5.9315279    
      6800   298.34906     -1792.1246      19.706533      1044.9493      6131.1518      20.544032      17.791654      16.774132      10.272016      10.272016      5.9305513    
      6900   298.32111     -1792.0812      19.704686      1341.69        6129.6192      20.54232       17.790171      16.772734      10.27116       10.27116       5.9300571    
      7000   302.11091     -1792.2929      19.95501       1135.7652      6130.5418      20.543351      17.791064      16.773576      10.271675      10.271675      5.9303546    
      7100   292.61558     -1791.6389      19.327825      575.82293      6134.5916      20.547874      17.794981      16.777269      10.273937      10.273937      5.9316602    
      7200   304.46487     -1792.3965      20.110493     -308.42331      6136.5662      20.550078      17.79689       16.779068      10.275039      10.275039      5.9322965    
      7300   304.53607     -1792.3771      20.115197     -900.51626      6139.2361      20.553058      17.79947       16.781501      10.276529      10.276529      5.9331567    
      7400   298.03398     -1791.9296      19.685721     -635.59977      6139.6579      20.553529      17.799878      16.781886      10.276764      10.276764      5.9332926    
      7500   301.57323     -1792.1456      19.919495     -439.72066      6138.643       20.552396      17.798897      16.780961      10.276198      10.276198      5.9329657    
      7600   295.18213     -1791.715       19.497351     -30.999752      6137.3754      20.550981      17.797672      16.779806      10.275491      10.275491      5.9325573    
      7700   298.18429     -1791.9013      19.695649      346.32127      6136.0584      20.549511      17.796399      16.778606      10.274756      10.274756      5.9321329    
      7800   289.12237     -1791.2988      19.097092      624.49651      6136.4821      20.549984      17.796808      16.778992      10.274992      10.274992      5.9322694    
      7900   300.21355     -1792.03        19.829685      10.117117      6136.5951      20.55011       17.796918      16.779095      10.275055      10.275055      5.9323059    
      8000   301.91536     -1792.145       19.942094      93.936026      6135.8002      20.549223      17.796149      16.77837       10.274611      10.274611      5.9320497    
      8100   291.11079     -1791.4323      19.228431      971.28909      6134.2071      20.547444      17.794609      16.776918      10.273722      10.273722      5.9315362    
      8200   308.3871      -1792.5793      20.369564     -267.94074      6136.7818      20.550319      17.797098      16.779265      10.275159      10.275159      5.932366     
      8300   316.84846     -1793.1434      20.928454     -671.56012      6136.2567      20.549733      17.79659       16.778786      10.274866      10.274866      5.9321968    
      8400   298.28986     -1791.9217      19.702622      678.63427      6133.8612      20.547058      17.794274      16.776603      10.273529      10.273529      5.9314247    
      8500   301.62438     -1792.1451      19.922873      901.24284      6131.7374      20.544686      17.79222       16.774666      10.272343      10.272343      5.9307401    
      8600   304.42604     -1792.3358      20.107928      218.80632      6133.9682      20.547178      17.794378      16.7767        10.273589      10.273589      5.9314592    
      8700   301.71783     -1792.1616      19.929046     -85.48897       6136.8427      20.550387      17.797157      16.77932       10.275193      10.275193      5.9323856    
      8800   320.36707     -1793.4008      21.160864     -1542.0728      6139.7327      20.553612      17.79995       16.781954      10.276806      10.276806      5.9333167    
      8900   311.82142     -1792.8432      20.596408     -653.14658      6136.6651      20.550188      17.796985      16.779159      10.275094      10.275094      5.9323284    
      9000   305.03101     -1792.4035      20.147888      496.81647      6133.0911      20.546198      17.793529      16.7759        10.273099      10.273099      5.9311765    
      9100   294.5145      -1791.7089      19.453252      1320.7484      6131.2341      20.544124      17.791733      16.774207      10.272062      10.272062      5.9305778    
      9200   307.63914     -1792.574       20.320161      921.5712       6130.8477      20.543693      17.79136       16.773855      10.271846      10.271846      5.9304532    
      9300   309.33635     -1792.6881      20.432264      747.98091      6130.885       20.543734      17.791396      16.773889      10.271867      10.271867      5.9304653    
      9400   298.32366     -1791.9578      19.704855      866.70754      6132.698       20.545759      17.793149      16.775542      10.27288       10.27288       5.9310498    
      9500   298.71568     -1791.985       19.730748      1192.4008      6130.9529      20.54381       17.791461      16.773951      10.271905      10.271905      5.9304871    
      9600   305.17077     -1792.4144      20.157119     -95.360067      6134.6763      20.547968      17.795062      16.777346      10.273984      10.273984      5.9316875    
      9700   300.52443     -1792.1028      19.85022       110.77401      6135.6151      20.549016      17.79597       16.778201      10.274508      10.274508      5.93199      
      9800   288.72479     -1791.3285      19.070831     -413.22182      6139.4337      20.553278      17.799661      16.781681      10.276639      10.276639      5.9332204    
      9900   308.85697     -1792.6521      20.4006       -2332.2168      6145.0933      20.559592      17.805129      16.786837      10.279796      10.279796      5.935043     
     10000   301.63484     -1792.1751      19.923565     -1721.4864      6142.7604      20.55699       17.802876      16.784712      10.278495      10.278495      5.9342918    
     10100   306.13476     -1792.465       20.220793     -1508.7545      6141.5245      20.555611      17.801682      16.783586      10.277806      10.277806      5.9338939    
     10200   305.32247     -1792.407       20.167139     -1291.1334      6141.1804      20.555227      17.801349      16.783273      10.277614      10.277614      5.933783     
     10300   302.62567     -1792.2322      19.989011     -507.08637      6137.9079      20.551576      17.798187      16.780291      10.275788      10.275788      5.9327288    
     10400   306.15106     -1792.4608      20.22187       1097.6246      6130.4466      20.543245      17.790972      16.773489      10.271622      10.271622      5.9303239    
     10500   303.1395      -1792.2585      20.02295       2265.552       6125.7201      20.537964      17.786398      16.769177      10.268982      10.268982      5.9287994    
     10600   302.32741     -1792.2041      19.96931       2222.3456      6125.1341      20.537309      17.785831      16.768642      10.268654      10.268654      5.9286104    
     10700   300.18841     -1792.062       19.828025      2371.6319      6125.1279      20.537302      17.785825      16.768637      10.268651      10.268651      5.9286084    
     10800   295.23397     -1791.7432      19.500775      2066.9202      6127.7344      20.540215      17.788348      16.771015      10.270107      10.270107      5.9294492    
     10900   293.65105     -1791.635       19.39622       1615.2693      6129.4838      20.542169      17.79004       16.772611      10.271085      10.271085      5.9300134    
     11000   292.40131     -1791.5586      19.313672      850.26464      6133.2139      20.546335      17.793648      16.776012      10.273168      10.273168      5.9312161    
     11100   294.1489      -1791.6841      19.429104     -965.23647      6142.0145      20.556158      17.802155      16.784033      10.278079      10.278079      5.9340517    
     11200   311.58955     -1792.8305      20.581093     -3090.7025      6148.3239      20.563194      17.808249      16.789778      10.281597      10.281597      5.9360829    
     11300   311.24946     -1792.8097      20.558629     -3060.3966      6148.461       20.563347      17.808381      16.789903      10.281674      10.281674      5.936127     
     11400   305.46259     -1792.4349      20.176395     -1413.3226      6142.1066      20.556261      17.802244      16.784117      10.27813       10.27813       5.9340813    
     11500   296.14017     -1791.823       19.560631     -145.56453      6137.1282      20.550705      17.797433      16.779581      10.275353      10.275353      5.9324776    
     11600   311.51335     -1792.8359      20.576059     -75.8122        6134.7692      20.548072      17.795152      16.77743       10.274036      10.274036      5.9317174    
     11700   303.77654     -1792.3252      20.065028      370.8079       6133.4809      20.546633      17.793906      16.776256      10.273317      10.273317      5.9313022    
     11800   304.22169     -1792.3496      20.094431      411.84215      6133.8262      20.547019      17.79424       16.776571      10.273509      10.273509      5.9314135    
     11900   295.68457     -1791.7814      19.530538      864.81542      6133.1583      20.546273      17.793594      16.775962      10.273137      10.273137      5.9311982    
     12000   299.86874     -1792.0545      19.80691       470.18728      6134.3256      20.547577      17.794723      16.777026      10.273788      10.273788      5.9315744    
     12100   299.30362     -1792.0142      19.769583      554.23805      6133.4654      20.546616      17.793892      16.776242      10.273308      10.273308      5.9312972    
     12200   287.53706     -1791.2367      18.992379      997.46536      6134.2689      20.547513      17.794668      16.776974      10.273757      10.273757      5.9315561    
     12300   303.00197     -1792.2574      20.013866     -517.63972      6138.123       20.551816      17.798394      16.780487      10.275908      10.275908      5.9327982    
     12400   310.37777     -1792.7436      20.501052     -741.28011      6138.1769      20.551876      17.798447      16.780536      10.275938      10.275938      5.9328155    
     12500   296.29833     -1791.8137      19.571078     -13.320174      6137.8353      20.551495      17.798116      16.780225      10.275747      10.275747      5.9327054    
     12600   319.47156     -1793.348       21.101714     -839.23358      6136.6401      20.55016       17.796961      16.779136      10.27508       10.27508       5.9323203    
     12700   306.86857     -1792.5156      20.269262     -19.29417       6135.258       20.548618      17.795625      16.777876      10.274309      10.274309      5.9318749    
     12800   280.53531     -1790.7772      18.5299        2013.4825      6130.7737      20.54361       17.791288      16.773787      10.271805      10.271805      5.9304294    
     12900   313.4674      -1792.9543      20.705128     -198.40458      6134.5665      20.547846      17.794956      16.777246      10.273923      10.273923      5.9316521    
     13000   299.54749     -1792.0374      19.785691      18.1651        6136.7327      20.550264      17.797051      16.77922       10.275132      10.275132      5.9323502    
     13100   299.28573     -1792.023       19.768401     -47.131089      6136.6037      20.55012       17.796926      16.779103      10.27506       10.27506       5.9323086    
     13200   316.26651     -1793.1397      20.890014     -1854.1628      6142.0134      20.556157      17.802154      16.784032      10.278078      10.278078      5.9340513    
     13300   295.96128     -1791.7994      19.548815     -1339.0822      6142.8621      20.557103      17.802974      16.784805      10.278552      10.278552      5.9343246    
     13400   307.75542     -1792.5799      20.327841     -1463.8433      6141.2506      20.555306      17.801417      16.783337      10.277653      10.277653      5.9338056    
     13500   298.78855     -1791.9848      19.735562     -559.42681      6138.1673      20.551865      17.798437      16.780528      10.275932      10.275932      5.9328124    
     13600   300.38511     -1792.0869      19.841017     -997.48775      6140.8497      20.554858      17.80103       16.782972      10.277429      10.277429      5.9336765    
     13700   285.87624     -1791.1313      18.882679      590.41311      6136.0718      20.549526      17.796412      16.778618      10.274763      10.274763      5.9321372    
     13800   292.36462     -1791.5589      19.311248      932.46023      6133.3353      20.546471      17.793766      16.776123      10.273235      10.273235      5.9312552    
     13900   306.92642     -1792.5191      20.273083      472.02577      6132.1955      20.545198      17.792663      16.775084      10.272599      10.272599      5.9308878    
     14000   283.60703     -1790.9788      18.732793      1946.212       6130.0719      20.542826      17.790609      16.773147      10.271413      10.271413      5.9302031    
     14100   298.44656     -1791.9598      19.712973      726.88105      6133.1033      20.546212      17.793541      16.775912      10.273106      10.273106      5.9311804    
     14200   301.64482     -1792.1741      19.924224     -433.92619      6136.7696      20.550305      17.797086      16.779254      10.275152      10.275152      5.9323621    
     14300   294.89368     -1791.7265      19.478298     -179.73063      6138.0335      20.551716      17.798308      16.780406      10.275858      10.275858      5.9327693    
     14400   288.1285      -1791.2812      19.031445     -249.99838      6140.0962      20.554018      17.800301      16.782285      10.277009      10.277009      5.9334338    
     14500   288.15669     -1791.2835      19.033307     -69.482997      6138.435       20.552164      17.798696      16.780771      10.276082      10.276082      5.9328987    
     14600   296.48339     -1791.8343      19.583301      245.7945       6135.5829      20.54898       17.795939      16.778172      10.27449       10.27449       5.9319796    
     14700   291.72812     -1791.5171      19.269206      882.41598      6133.8897      20.54709       17.794302      16.776629      10.273545      10.273545      5.9314339    
     14800   295.73227     -1791.7841      19.533688     -567.41944      6139.4994      20.553352      17.799725      16.781741      10.276676      10.276676      5.9332415    
     14900   299.83833     -1792.0522      19.804902     -1493.8013      6142.4844      20.556682      17.802609      16.784461      10.278341      10.278341      5.934203     
     15000   299.47164     -1792.0293      19.780681     -1501.6898      6142.4129      20.556602      17.80254       16.784396      10.278301      10.278301      5.93418      
     15100   285.72749     -1791.1207      18.872854      253.1814       6137.3788      20.550985      17.797675      16.779809      10.275492      10.275492      5.9325583    
     15200   296.2199      -1791.8145      19.565898     -622.99974      6139.1785      20.552994      17.799415      16.781449      10.276497      10.276497      5.9331382    
     15300   303.36698     -1792.2858      20.037976     -1399.8627      6141.5107      20.555596      17.801668      16.783574      10.277798      10.277798      5.9338894    
     15400   293.58419     -1791.639       19.391804     -5.9709987      6136.7999      20.550339      17.797115      16.779281      10.275169      10.275169      5.9323718    
     15500   301.18707     -1792.1412      19.893989      168.0881       6134.0226      20.547238      17.79443       16.77675       10.273619      10.273619      5.9314768    
     15600   302.85225     -1792.2485      20.003977      611.11043      6132.1719      20.545172      17.79264       16.775062      10.272586      10.272586      5.9308802    
     15700   294.85488     -1791.7199      19.475735      126.15988      6136.4555      20.549954      17.796783      16.778967      10.274977      10.274977      5.9322608    
     15800   298.25697     -1791.9438      19.70045      -318.67187      6138.2676      20.551977      17.798534      16.780619      10.275988      10.275988      5.9328447    
     15900   307.2402      -1792.5331      20.293809     -148.74989      6135.5484      20.548942      17.795906      16.778141      10.274471      10.274471      5.9319685    
     16000   293.90202     -1791.6507      19.412797      710.20626      6133.7389      20.546921      17.794156      16.776491      10.273461      10.273461      5.9313853    
     16100   295.19271     -1791.7352      19.49805       791.72055      6133.2206      20.546343      17.793655      16.776019      10.273171      10.273171      5.9312183    
     16200   303.05133     -1792.2514      20.017126      307.94825      6134.239       20.54748       17.79464       16.776947      10.27374       10.27374       5.9315465    
     16300   294.71472     -1791.6964      19.466477      657.32737      6134.0885      20.547312      17.794494      16.77681       10.273656      10.273656      5.931498     
     16400   293.05471     -1791.5838      19.356831      1158.7064      6132.3907      20.545416      17.792852      16.775262      10.272708      10.272708      5.9309507    
     16500   307.82012     -1792.5578      20.332114     -92.230299      6134.551       20.547828      17.794941      16.777231      10.273914      10.273914      5.9316471    
     16600   301.23307     -1792.1204      19.897027     -292.09709      6137.3503      20.550953      17.797648      16.779783      10.275477      10.275477      5.9325492    
     16700   296.23467     -1791.7899      19.566873     -656.89699      6140.2227      20.554159      17.800424      16.7824        10.277079      10.277079      5.9334745    
     16800   296.57907     -1791.8152      19.589621     -1067.8395      6141.9749      20.556114      17.802117      16.783997      10.278057      10.278057      5.9340389    
     16900   299.20481     -1791.9949      19.763056     -554.42119      6138.8167      20.55259       17.799065      16.781119      10.276295      10.276295      5.9330216    
     17000   299.20367     -1791.9962      19.762981      499.77158      6133.7726      20.546959      17.794189      16.776522      10.27348       10.27348       5.9313962    
     17100   304.35093     -1792.3354      20.102968      956.96587      6131.2166      20.544105      17.791716      16.774191      10.272052      10.272052      5.9305722    
     17200   295.28368     -1791.7369      19.504058      1482.8253      6130.1192      20.542879      17.790655      16.77319       10.271439      10.271439      5.9302183    
     17300   304.34157     -1792.3369      20.102349      760.34404      6131.8218      20.544781      17.792302      16.774743      10.27239       10.27239       5.9307673    
     17400   304.9153      -1792.3793      20.140245     -706.75745      6137.6286      20.551264      17.797917      16.780037      10.275632      10.275632      5.9326389    
     17500   291.38519     -1791.4774      19.246556     -112.72372      6138.2941      20.552007      17.79856       16.780643      10.276003      10.276003      5.9328533    
     17600   289.13941     -1791.3266      19.098217      187.27336      6137.4338      20.551046      17.797728      16.779859      10.275523      10.275523      5.9325761    
     17700   310.87076     -1792.7627      20.533615     -843.62218      6137.5207      20.551143      17.797812      16.779938      10.275572      10.275572      5.9326041    
     17800   307.50518     -1792.5391      20.311312     -180.15359      6135.132       20.548477      17.795503      16.777761      10.274238      10.274238      5.9318343    
     17900   305.50811     -1792.4076      20.179401     -101.65829      6135.4146      20.548792      17.795776      16.778019      10.274396      10.274396      5.9319254    
     18000   303.03059     -1792.2486      20.015756      696.07109      6132.164       20.545163      17.792633      16.775055      10.272581      10.272581      5.9308776    
     18100   291.7452      -1791.5004      19.270335      1915.4893      6129.7062      20.542418      17.790255      16.772814      10.271209      10.271209      5.9300851    
     18200   304.16068     -1792.324       20.090401      673.96104      6132.1682      20.545167      17.792637      16.775059      10.272584      10.272584      5.930879     
     18300   315.23939     -1793.0556      20.822172     -699.16863      6136.9198      20.550473      17.797231      16.779391      10.275236      10.275236      5.9324105    
     18400   309.96126     -1792.7083      20.47354      -710.82972      6138.2498      20.551957      17.798517      16.780603      10.275979      10.275979      5.932839     
     18500   291.10298     -1791.4647      19.227915      285.58317      6136.8396      20.550383      17.797154      16.779318      10.275192      10.275192      5.9323846    
     18600   302.49806     -1792.2231      19.980582     -1305.7777      6141.4431      20.55552       17.801603      16.783512      10.27776       10.27776       5.9338676    
     18700   291.87428     -1791.5259      19.278861     -1091.1781      6142.514       20.556715      17.802638      16.784488      10.278358      10.278358      5.9342125    
     18800   297.87607     -1791.9245      19.675291     -1348.1567      6142.985       20.557241      17.803093      16.784917      10.27862       10.27862       5.9343642    
     18900   303.06965     -1792.2715      20.018337     -875.52596      6140.1008      20.554023      17.800306      16.782289      10.277011      10.277011      5.9334353    
     19000   298.31916     -1791.9628      19.704557      252.48294      6135.595       20.548994      17.795951      16.778183      10.274497      10.274497      5.9319836    
     19100   307.13663     -1792.5454      20.286968      780.71356      6131.4184      20.54433       17.791912      16.774375      10.272165      10.272165      5.9306372    
     19200   298.49655     -1791.9738      19.716275      1599.0262      6128.7333      20.541331      17.789314      16.771926      10.270665      10.270665      5.9297714    
     19300   284.1609      -1791.0254      18.769377      2282.2075      6127.977       20.540486      17.788582      16.771236      10.270243      10.270243      5.9295275    
     19400   298.0351      -1791.9391      19.685795      521.69397      6134.3844      20.547642      17.79478       16.77708       10.273821      10.273821      5.9315934    
     19500   297.29799     -1791.8928      19.637107     -582.93728      6139.3446      20.553179      17.799575      16.7816        10.276589      10.276589      5.9331917    
     19600   311.03153     -1792.7929      20.544234     -1862.0838      6142.5838      20.556793      17.802705      16.784551      10.278396      10.278396      5.934235     
     19700   305.2428      -1792.4081      20.161877     -1129.0966      6140.076       20.553995      17.800282      16.782267      10.276998      10.276998      5.9334273    
     19800   302.00938     -1792.1927      19.948303     -620.75289      6138.5105      20.552248      17.798769      16.78084       10.276124      10.276124      5.932923     
     19900   310.60163     -1792.7597      20.515838     -756.6896       6138.0704      20.551757      17.798344      16.780439      10.275878      10.275878      5.9327812    
     20000   305.92493     -1792.4542      20.206933      249.00175      6134.3303      20.547582      17.794728      16.77703       10.273791      10.273791      5.9315759    
     20100   303.30372     -1792.2872      20.033797      900.96978      6131.5198      20.544443      17.79201       16.774468      10.272222      10.272222      5.9306699    
     20200   301.85761     -1792.1931      19.938279      1891.4839      6127.6361      20.540105      17.788253      16.770925      10.270052      10.270052      5.9294175    
     20300   305.16544     -1792.4069      20.156767      1552.5651      6128.7214      20.541317      17.789303      16.771915      10.270659      10.270659      5.9297676    
     20400   305.15127     -1792.4056      20.155831      2180.2508      6125.3419      20.537541      17.786032      16.768832      10.268771      10.268771      5.9286774    
     20500   305.46063     -1792.4198      20.176265      2240.1737      6124.3495      20.536432      17.785072      16.767926      10.268216      10.268216      5.9283572    
     20600   294.5044      -1791.6962      19.452585      2602.118       6125.2309      20.537417      17.785925      16.768731      10.268708      10.268708      5.9286416    
     20700   297.70121     -1791.9142      19.66374       1985.0945      6127.8069      20.540296      17.788418      16.771081      10.270148      10.270148      5.9294726    
     20800   287.17841     -1791.2221      18.968689      1767.4186      6130.2859      20.543065      17.790816      16.773342      10.271533      10.271533      5.9302721    
     20900   297.92898     -1791.9304      19.678785      565.64784      6134.3987      20.547658      17.794794      16.777093      10.273829      10.273829      5.931598     
     21000   295.22269     -1791.7526      19.50003      -262.96949      6138.3394      20.552057      17.798604      16.780684      10.276029      10.276029      5.9328679    
     21100   297.44777     -1791.8945      19.647001     -771.47441      6139.706       20.553582      17.799924      16.78193       10.276791      10.276791      5.9333081    
     21200   312.34843     -1792.8778      20.631218     -1520.7043      6140.5021      20.554471      17.800694      16.782655      10.277235      10.277235      5.9335646    
     21300   286.98422     -1791.2007      18.955863      405.64249      6136.7078      20.550236      17.797026      16.779197      10.275118      10.275118      5.9323421    
     21400   286.10033     -1791.1432      18.89748       1072.9517      6133.9105      20.547113      17.794322      16.776648      10.273557      10.273557      5.9314406    
     21500   300.7548      -1792.1105      19.865437      327.99206      6134.9171      20.548237      17.795295      16.777565      10.274118      10.274118      5.9317651    
     21600   291.71918     -1791.5151      19.268616      606.24647      6135.1512      20.548498      17.795522      16.777779      10.274249      10.274249      5.9318405    
     21700   296.5082      -1791.8319      19.58494      -553.95542      6140.2054      20.554139      17.800407      16.782385      10.27707       10.27707       5.933469     
     21800   299.568       -1792.0348      19.787046     -1201.9355      6142.0185      20.556162      17.802159      16.784036      10.278081      10.278081      5.934053     
     21900   307.18339     -1792.5386      20.290057     -1611.9662      6142.5617      20.556768      17.802684      16.784531      10.278384      10.278384      5.9342279    
     22000   291.11476     -1791.4803      19.228693     -357.31288      6139.3159      20.553147      17.799547      16.781574      10.276573      10.276573      5.9331824    
     22100   293.83086     -1791.6598      19.408097     -564.74755      6140.3269      20.554275      17.800524      16.782495      10.277138      10.277138      5.9335081    
     22200   306.88848     -1792.524       20.270577     -720.40866      6138.7147      20.552476      17.798966      16.781026      10.276238      10.276238      5.9329888    
     22300   311.50758     -1792.8372      20.575678     -258.50351      6135.5932      20.548992      17.795949      16.778182      10.274496      10.274496      5.931983     
     22400   304.7991      -1792.3951      20.13257       1641.9395      6128.6268      20.541212      17.789211      16.771829      10.270606      10.270606      5.9297371    
     22500   311.35936     -1792.8299      20.565888      1920.5596      6125.8335      20.53809       17.786508      16.769281      10.269045      10.269045      5.928836     
     22600   318.77465     -1793.321       21.055682      2241.1045      6122.4403      20.534298      17.783223      16.766184      10.267149      10.267149      5.9277411    
     22700   291.9093      -1791.5502      19.281174      3512.1323      6122.148       20.533971      17.78294       16.765917      10.266985      10.266985      5.9276468    
     22800   292.68669     -1791.6112      19.332522      2825.1037      6124.468       20.536564      17.785186      16.768035      10.268282      10.268282      5.9283955    
     22900   302.0782      -1792.2433      19.952849      861.62727      6131.7711      20.544724      17.792253      16.774697      10.272362      10.272362      5.930751     
     23000   306.0428      -1792.5064      20.214719     -1586.6062      6142.3648      20.556549      17.802493      16.784352      10.278274      10.278274      5.9341645    
     23100   301.28428     -1792.186       19.900409     -2700.551       6148.2676      20.563132      17.808194      16.789727      10.281566      10.281566      5.9360648    
     23200   294.44029     -1791.7274      19.448351     -1926.6102      6145.9717      20.560572      17.805977      16.787636      10.280286      10.280286      5.9353258    
     23300   296.30311     -1791.8494      19.571393     -1808.4071      6145.2659      20.559785      17.805296      16.786994      10.279892      10.279892      5.9350986    
     23400   303.40412     -1792.3162      20.040429     -2224.0158      6145.9671      20.560566      17.805973      16.787632      10.280283      10.280283      5.9353243    
     23500   294.99863     -1791.7621      19.48523      -1333.4176      6143.0249      20.557285      17.803131      16.784953      10.278643      10.278643      5.934377     
     23600   306.85319     -1792.5442      20.268247     -689.73088      6137.7034      20.551347      17.797989      16.780105      10.275674      10.275674      5.9326629    
     23700   294.71138     -1791.7362      19.466257      1174.4435      6131.3381      20.54424       17.791834      16.774302      10.27212       10.27212       5.9306113    
     23800   293.75439     -1791.6665      19.403045      2364.5086      6126.6685      20.539024      17.787316      16.770043      10.269512      10.269512      5.9291054    
     23900   290.56443     -1791.4555      19.192343      2486.6308      6126.7768      20.539145      17.787421      16.770141      10.269572      10.269572      5.9291403    
     24000   302.49805     -1792.2529      19.980581      818.82856      6131.767       20.544719      17.792249      16.774693      10.27236       10.27236       5.9307496    
     24100   294.78003     -1791.7366      19.470791     -279.84562      6138.3637      20.552084      17.798627      16.780707      10.276042      10.276042      5.9328757    
     24200   300.3157      -1792.1014      19.836433     -1696.1202      6144.1376      20.558526      17.804206      16.785966      10.279263      10.279263      5.9347353    
     24300   296.97798     -1791.8786      19.61597      -2115.9032      6146.423       20.561075      17.806413      16.788047      10.280537      10.280537      5.9354711    
     24400   291.87712     -1791.5373      19.279048     -1736.2053      6146.3483      20.560992      17.806341      16.787979      10.280496      10.280496      5.935447     
     24500   300.71761     -1792.1262      19.86298      -2017.1919      6145.8965      20.560488      17.805905      16.787568      10.280244      10.280244      5.9353016    
     24600   304.88692     -1792.4085      20.138371     -1514.0826      6142.9246      20.557173      17.803034      16.784862      10.278587      10.278587      5.9343447    
     24700   288.53897     -1791.3249      19.058557      493.85144      6136.0598      20.549513      17.7964        16.778607      10.274756      10.274756      5.9321334    
     24800   295.39504     -1791.7732      19.511413      950.00195      6132.7633      20.545832      17.793213      16.775602      10.272916      10.272916      5.9310708    
     24900   303.14193     -1792.2783      20.023111      978.11592      6131.1582      20.544039      17.79166       16.774138      10.27202       10.27202       5.9305533    
     25000   281.80696     -1790.8655      18.613895      2471.5246      6129.0404      20.541674      17.789611      16.772206      10.270837      10.270837      5.9298704    
     25100   309.2368      -1792.6767      20.425689      368.73371      6132.65        20.545705      17.793103      16.775498      10.272853      10.272853      5.9310343    
     25200   312.3087      -1792.8796      20.628594     -322.92388      6135.7041      20.549116      17.796056      16.778283      10.274558      10.274558      5.9320187    
     25300   294.82151     -1791.7203      19.473531      547.70834      6135.4525      20.548835      17.795813      16.778053      10.274417      10.274417      5.9319376    
     25400   312.13241     -1792.868       20.616949     -875.41263      6138.3003      20.552013      17.798566      16.780649      10.276007      10.276007      5.9328553    
     25500   297.94684     -1791.9305      19.679965     -8.5342027      6137.1676      20.550749      17.797471      16.779617      10.275375      10.275375      5.9324903    
     25600   302.85432     -1792.2574      20.004114     -222.81255      6137.2883      20.550884      17.797588      16.779726      10.275442      10.275442      5.9325292    
     25700   300.33552     -1792.0916      19.837742      195.62499      6135.8058      20.549229      17.796154      16.778375      10.274615      10.274615      5.9320515    
     25800   301.82165     -1792.1884      19.935903      1057.1546      6130.6618      20.543485      17.79118       16.773685      10.271743      10.271743      5.9303933    
     25900   293.54678     -1791.6425      19.389333      1233.0277      6132.2481      20.545257      17.792714      16.775132      10.272628      10.272628      5.9309048    
     26000   316.01765     -1793.1271      20.873577     -600.70437      6135.8646      20.549295      17.796211      16.778429      10.274647      10.274647      5.9320704    
     26100   300.59344     -1792.1087      19.854778      175.8668       6135.3391      20.548708      17.795703      16.77795       10.274354      10.274354      5.9319011    
     26200   302.70322     -1792.2477      19.994133      373.16325      6134.6547      20.547944      17.795042      16.777326      10.273972      10.273972      5.9316805    
     26300   305.4322      -1792.4317      20.174388      641.30454      6132.5168      20.545557      17.792974      16.775377      10.272778      10.272778      5.9309914    
     26400   305.36057     -1792.4257      20.169656      771.27529      6131.2781      20.544173      17.791776      16.774247      10.272087      10.272087      5.930592     
     26500   303.71784     -1792.3136      20.061151      448.20878      6134.2115      20.547449      17.794613      16.776922      10.273725      10.273725      5.9315377    
     26600   294.71088     -1791.7177      19.466224      953.12347      6133.272       20.5464        17.793704      16.776065      10.2732        10.2732        5.9312348    
     26700   302.17448     -1792.211       19.959209     -103.21457      6135.9997      20.549446      17.796342      16.778552      10.274723      10.274723      5.932114     
     26800   289.1349      -1791.3485      19.09792       728.63572      6135.1473      20.548494      17.795518      16.777775      10.274247      10.274247      5.9318393    
     26900   303.55284     -1792.3006      20.050252     -268.1948       6136.016       20.549464      17.796358      16.778567      10.274732      10.274732      5.9321192    
     27000   308.28236     -1792.612       20.362646      447.50938      6133.0254      20.546125      17.793466      16.775841      10.273062      10.273062      5.9311553    
     27100   292.6457      -1791.5825      19.329814      2047.0769      6128.2952      20.540841      17.78889       16.771527      10.270421      10.270421      5.9296301    
     27200   307.18688     -1792.5417      20.290288      1053.5857      6129.8139      20.542538      17.79036       16.772912      10.271269      10.271269      5.9301199    
     27300   298.08994     -1791.9453      19.689417      1318.8359      6130.524       20.543331      17.791047      16.77356       10.271666      10.271666      5.9303489    
     27400   296.68879     -1791.8543      19.596868      761.43678      6132.9503      20.546041      17.793393      16.775772      10.27302       10.27302       5.9311311    
     27500   299.2622      -1792.0219      19.766847     -510.46541      6138.1505      20.551846      17.798421      16.780512      10.275923      10.275923      5.932807     
     27600   300.14012     -1792.0806      19.824835     -1564.4141      6142.826       20.557063      17.802939      16.784772      10.278532      10.278532      5.934313     
     27700   314.34533     -1793.0173      20.763117     -2392.877       6143.7891      20.558137      17.803869      16.785649      10.279069      10.279069      5.9346231    
     27800   301.20839     -1792.1509      19.895397     -1005.329       6140.5697      20.554546      17.800759      16.782716      10.277273      10.277273      5.9335863    
     27900   308.17738     -1792.6073      20.355712     -856.10627      6139.3264      20.553159      17.799558      16.781584      10.276579      10.276579      5.9331858    
     28000   283.9535      -1791.0134      18.755678      1184.387       6133.4894      20.546643      17.793915      16.776264      10.273321      10.273321      5.9313049    
     28100   291.53618     -1791.5117      19.256528      1161.3535      6132.9642      20.546056      17.793407      16.775785      10.273028      10.273028      5.9311356    
     28200   291.55163     -1791.5125      19.257549      1468.1552      6131.7092      20.544655      17.792193      16.77464       10.272327      10.272327      5.930731     
     28300   310.26759     -1792.7473      20.493775      740.05066      6130.781       20.543618      17.791295      16.773794      10.271809      10.271809      5.9304317    
     28400   296.65838     -1791.8519      19.59486       1386.2529      6129.7777      20.542497      17.790325      16.772879      10.271249      10.271249      5.9301082    
     28500   302.23393     -1792.2201      19.963135      841.36638      6132.1538      20.545151      17.792623      16.775046      10.272576      10.272576      5.9308743    
     28600   295.90469     -1791.8064      19.545077      797.96841      6132.5941      20.545643      17.793049      16.775447      10.272822      10.272822      5.9310163    
     28700   297.3236      -1791.9024      19.638799     -429.74332      6139.364       20.553201      17.799594      16.781618      10.2766        10.2766        5.9331979    
     28800   315.44925     -1793.0977      20.836033     -2834.549       6146.6691      20.561349      17.806651      16.788271      10.280675      10.280675      5.9355503    
     28900   297.20969     -1791.8921      19.631275     -1914.9657      6146.2112      20.560839      17.806209      16.787855      10.280419      10.280419      5.9354029    
     29000   290.51265     -1791.4503      19.188923     -772.57008      6141.8421      20.555966      17.801988      16.783876      10.277983      10.277983      5.9339961    
     29100   312.33708     -1792.8958      20.630468     -1612.0844      6141.3687      20.555437      17.801531      16.783444      10.277719      10.277719      5.9338437    
     29200   284.88434     -1791.0783      18.817162      1018.423       6134.7323      20.548031      17.795117      16.777397      10.274015      10.274015      5.9317055    
     29300   297.81861     -1791.9315      19.671495      625.00857      6133.919       20.547123      17.79433       16.776655      10.273561      10.273561      5.9314434    
     29400   296.11919     -1791.8166      19.559245      1401.5536      6130.3307      20.543115      17.79086       16.773383      10.271558      10.271558      5.9302865    
     29500   302.65331     -1792.2473      19.990837      371.55942      6134.1892      20.547424      17.794591      16.776902      10.273712      10.273712      5.9315305    
     29600   302.58491     -1792.2326      19.986318     -104.05009      6136.7495      20.550283      17.797067      16.779235      10.275141      10.275141      5.9323556    
     29700   300.45711     -1792.0886      19.845773     -18.270826      6136.667       20.55019       17.796987      16.77916       10.275095      10.275095      5.932329     
     29800   305.10169     -1792.3945      20.152557     -836.03295      6139.7509      20.553632      17.799968      16.78197       10.276816      10.276816      5.9333226    
     29900   304.12587     -1792.3278      20.088102     -788.54836      6139.5358      20.553392      17.79976       16.781774      10.276696      10.276696      5.9332533    
     30000   308.96958     -1792.6436      20.408038     -567.27823      6137.507       20.551128      17.797799      16.779926      10.275564      10.275564      5.9325997    
     30100   303.81082     -1792.3011      20.067292      85.994096      6135.6589      20.549065      17.796012      16.778241      10.274533      10.274533      5.9320041    
     30200   301.43632     -1792.1455      19.910452     -65.134913      6136.2736      20.549751      17.796607      16.778802      10.274876      10.274876      5.9322022    
     30300   303.91313     -1792.3109      20.07405       0.34374484     6135.0586      20.548395      17.795432      16.777694      10.274197      10.274197      5.9318107    
     30400   295.32767     -1791.7449      19.506964      342.65031      6135.6967      20.549107      17.796049      16.778276      10.274554      10.274554      5.9320163    
     30500   307.33824     -1792.5425      20.300285     -863.26622      6138.4509      20.552182      17.798711      16.780786      10.276091      10.276091      5.9329038    
     30600   287.27402     -1791.2222      18.975005      172.19273      6138.0173      20.551698      17.798292      16.780391      10.275849      10.275849      5.9327641    
     30700   293.9447      -1791.6642      19.415616     -475.53426      6139.8636      20.553758      17.800077      16.782073      10.276879      10.276879      5.9333589    
     30800   305.3579      -1792.4216      20.16948      -1437.3051      6142.125       20.556281      17.802262      16.784133      10.278141      10.278141      5.9340872    
     30900   304.8079      -1792.3878      20.133151     -1168.2348      6140.8178      20.554823      17.800999      16.782942      10.277411      10.277411      5.9336662    
     31000   298.493       -1791.9707      19.71604      -345.72745      6138.2277      20.551933      17.798496      16.780583      10.275966      10.275966      5.9328319    
     31100   308.7157      -1792.6465      20.391269     -214.60546      6135.0774      20.548416      17.79545       16.777711      10.274208      10.274208      5.9318167    
     31200   315.74247     -1793.1078      20.855401     -462.00031      6135.325       20.548692      17.79569       16.777937      10.274346      10.274346      5.9318965    
     31300   293.15048     -1791.6136      19.363156      1539.8893      6130.7677      20.543603      17.791282      16.773782      10.271802      10.271802      5.9304274    
     31400   295.85119     -1791.794       19.541543      1220.4693      6131.5408      20.544467      17.79203       16.774487      10.272233      10.272233      5.9306767    
     31500   310.56341     -1792.7648      20.513314      1047.8976      6129.2745      20.541935      17.789838      16.77242       10.270968      10.270968      5.9299459    
     31600   285.84825     -1791.1349      18.88083       3163.4161      6124.7099      20.536835      17.785421      16.768255      10.268417      10.268417      5.9284735    
     31700   302.31063     -1792.2223      19.968202      2113.2845      6126.5531      20.538895      17.787205      16.769937      10.269447      10.269447      5.9290682    
     31800   294.06041     -1791.689       19.423259      1573.1051      6130.9753      20.543835      17.791483      16.773971      10.271918      10.271918      5.9304944    
     31900   300.60861     -1792.1169      19.85578       454.81697      6133.941       20.547147      17.794351      16.776675      10.273574      10.273574      5.9314505    
     32000   301.6979      -1792.1867      19.92773      -393.51889      6137.7446      20.551393      17.798029      16.780142      10.275697      10.275697      5.9326762    
     32100   301.34392     -1792.1616      19.904349     -1409.2666      6142.5197      20.556721      17.802643      16.784493      10.278361      10.278361      5.9342143    
     32200   302.37631     -1792.2271      19.97254      -1588.5209      6143.4081      20.557712      17.803501      16.785302      10.278856      10.278856      5.9345004    
     32300   293.37419     -1791.6329      19.377933     -487.04988      6140.1208      20.554045      17.800325      16.782308      10.277023      10.277023      5.9334417    
     32400   303.15176     -1792.2788      20.02376      -884.21546      6139.1971      20.553014      17.799433      16.781466      10.276507      10.276507      5.9331442    
     32500   291.3168      -1791.4976      19.242038      255.34139      6136.8088      20.550349      17.797124      16.77929       10.275174      10.275174      5.9323747    
     32600   314.70961     -1793.0423      20.787179     -842.60625      6137.7897      20.551444      17.798072      16.780183      10.275722      10.275722      5.9326908    
     32700   300.39255     -1792.095       19.841509      980.77852      6131.5916      20.544524      17.792079      16.774533      10.272262      10.272262      5.9306931    
     32800   302.25254     -1792.2173      19.964365      2112.0513      6126.1229      20.538414      17.786788      16.769545      10.269207      10.269207      5.9289294    
     32900   297.54119     -1791.9155      19.653171      2164.4422      6126.7872      20.539156      17.787431      16.770151      10.269578      10.269578      5.9291437    
     33000   293.08317     -1791.6156      19.358711      1607.8421      6130.1203      20.54288       17.790656      16.773191      10.27144       10.27144       5.9302187    
     33100   298.35392     -1791.9642      19.706853     -58.812195      6137.179       20.550762      17.797482      16.779627      10.275381      10.275381      5.932494     
     33200   319.62489     -1793.3635      21.111842     -1710.6572      6141.5029      20.555587      17.801661      16.783567      10.277794      10.277794      5.9338869    
     33300   292.0042      -1791.5407      19.287442      125.25716      6136.9358      20.55049       17.797247      16.779405      10.275245      10.275245      5.9324156    
     33400   296.84734     -1791.859       19.607341     -207.45574      6138.5088      20.552246      17.798767      16.780839      10.276123      10.276123      5.9329224    
     33500   290.66103     -1791.4519      19.198723      137.18785      6137.4695      20.551086      17.797763      16.779892      10.275543      10.275543      5.9325876    
     33600   299.06368     -1792.0087      19.753735     -510.14409      6138.5071      20.552244      17.798766      16.780837      10.276122      10.276122      5.9329219    
     33700   300.69724     -1792.1166      19.861634     -219.36892      6137.419       20.55103       17.797714      16.779846      10.275515      10.275515      5.9325713    
     33800   292.49231     -1791.5755      19.319683      924.16203      6133.0567      20.54616       17.793496      16.775869      10.27308       10.27308       5.9311654    
     33900   311.59265     -1792.84        20.581297     -478.08855      6135.8278      20.549254      17.796176      16.778395      10.274627      10.274627      5.9320586    
     34000   292.12095     -1791.5545      19.295154      424.48409      6135.6603      20.549067      17.796014      16.778243      10.274533      10.274533      5.9320046    
     34100   299.98863     -1792.0755      19.814829     -456.74314      6138.7345      20.552498      17.798985      16.781044      10.276249      10.276249      5.9329951    
     34200   306.78588     -1792.5241      20.263801     -841.30566      6138.6312      20.552383      17.798886      16.78095       10.276191      10.276191      5.9329619    
     34300   298.50853     -1791.9804      19.717066     -299.31356      6137.8184      20.551476      17.7981        16.78021       10.275738      10.275738      5.9327       
     34400   304.3808      -1792.3705      20.104941     -864.30641      6138.7643      20.552531      17.799014      16.781072      10.276266      10.276266      5.9330047    
     34500   306.14598     -1792.4851      20.221534     -698.64676      6138.1162      20.551808      17.798388      16.780481      10.275904      10.275904      5.9327959    
     34600   291.67779     -1791.5315      19.265882      847.80609      6133.8637      20.547061      17.794277      16.776605      10.27353       10.27353       5.9314255    
     34700   298.66046     -1791.9889      19.727101      1589.2633      6128.7631      20.541364      17.789343      16.771953      10.270682      10.270682      5.929781     
     34800   291.61454     -1791.5255      19.261705      1520.4478      6130.7125      20.543542      17.791229      16.773731      10.271771      10.271771      5.9304096    
     34900   303.50922     -1792.3163      20.047371     -463.79879      6137.2405      20.550831      17.797541      16.779683      10.275415      10.275415      5.9325138    
     35000   294.72562     -1791.7267      19.467197     -797.19304      6140.1814      20.554113      17.800384      16.782363      10.277056      10.277056      5.9334613    
     35100   293.51319     -1791.6402      19.387114     -861.55065      6140.9733      20.554996      17.801149      16.783084      10.277498      10.277498      5.9337163    
     35200   306.64396     -1792.5064      20.254427     -1647.1227      6142.1463      20.556305      17.802282      16.784153      10.278152      10.278152      5.9340941    
     35300   297.67505     -1791.9088      19.662013     -681.41543      6140.424       20.554383      17.800618      16.782584      10.277192      10.277192      5.9335394    
     35400   289.26254     -1791.3544      19.10635      -683.50393      6141.9348      20.556069      17.802078      16.78396       10.278034      10.278034      5.934026     
     35500   304.25062     -1792.3428      20.096342     -1765.869       6143.9308      20.558295      17.804006      16.785778      10.279148      10.279148      5.9346687    
     35600   292.78153     -1791.5873      19.338786     -620.77831      6140.9429      20.554962      17.80112       16.783056      10.277481      10.277481      5.9337065    
     35700   306.15148     -1792.4708      20.221898     -722.86061      6138.8459      20.552622      17.799093      16.781146      10.276311      10.276311      5.933031     
     35800   291.74674     -1791.5186      19.270437      227.30676      6137.1424      20.550721      17.797447      16.779594      10.275361      10.275361      5.9324822    
     35900   306.94625     -1792.5224      20.274393     -320.73649      6136.4206      20.549915      17.796749      16.778936      10.274958      10.274958      5.9322496    
     36000   289.24892     -1791.3523      19.10545       1365.0276      6131.8818      20.544848      17.79236       16.774798      10.272424      10.272424      5.9307866    
     36100   300.62562     -1792.105       19.856904     -176.88015      6136.9003      20.550451      17.797213      16.779373      10.275225      10.275225      5.9324042    
     36200   300.34659     -1792.086       19.838473      72.798258      6135.781       20.549201      17.79613       16.778353      10.274601      10.274601      5.9320435    
     36300   301.88757     -1792.1898      19.940258     -476.67169      6137.6757      20.551316      17.797962      16.78008       10.275658      10.275658      5.932654     
     36400   295.94793     -1791.7919      19.547933      525.21196      6134.645       20.547933      17.795032      16.777317      10.273967      10.273967      5.9316774    
     36500   298.60048     -1791.9631      19.723139     -138.39133      6136.7651      20.5503        17.797082      16.77925       10.27515       10.27515       5.9323606    
     36600   298.88214     -1791.9779      19.741743     -247.18424      6137.253       20.550845      17.797553      16.779694      10.275422      10.275422      5.9325178    
     36700   316.59434     -1793.1451      20.911668     -1367.1555      6139.2487      20.553072      17.799482      16.781513      10.276536      10.276536      5.9331608    
     36800   303.57231     -1792.2844      20.051539     -452.93797      6136.8968      20.550447      17.797209      16.77937       10.275224      10.275224      5.9324031    
     36900   299.0063      -1791.9812      19.749945     -342.74249      6137.5378      20.551163      17.797829      16.779954      10.275581      10.275581      5.9326096    
     37000   301.40877     -1792.1349      19.908632     -109.09827      6136.8245      20.550366      17.797139      16.779304      10.275183      10.275183      5.9323798    
     37100   307.38465     -1792.5303      20.303351     -396.64147      6136.7911      20.550329      17.797107      16.779273      10.275164      10.275164      5.932369     
     37200   328.92369     -1793.9541      21.726046     -1178.9168      6136.8146      20.550355      17.79713       16.779295      10.275178      10.275178      5.9323766    
     37300   280.7909      -1790.779       18.546782      1813.6981      6131.9448      20.544918      17.792421      16.774855      10.272459      10.272459      5.930807     
     37400   302.45754     -1792.2116      19.977905      155.47512      6135.1951      20.548547      17.795564      16.777819      10.274274      10.274274      5.9318547    
     37500   295.68146     -1791.7637      19.530333      441.44535      6134.3905      20.547649      17.794786      16.777085      10.273824      10.273824      5.9315953    
     37600   285.58715     -1791.0973      18.863584      750.47844      6135.0115      20.548342      17.795387      16.777651      10.274171      10.274171      5.9317955    
     37700   305.93357     -1792.4407      20.207504     -1138.0888      6139.467       20.553316      17.799693      16.781712      10.276658      10.276658      5.9332311    
     37800   311.60002     -1792.8173      20.581784     -1856.9634      6142.242       20.556412      17.802375      16.78424       10.278206      10.278206      5.9341249    
     37900   310.72861     -1792.7597      20.524226     -1532.1147      6141.6774      20.555782      17.801829      16.783726      10.277891      10.277891      5.9339431    
     38000   300.99203     -1792.1226      19.881105     -411.81352      6137.9443      20.551616      17.798222      16.780324      10.275808      10.275808      5.9327406    
     38100   304.07816     -1792.3276      20.084951      168.82787      6134.8285      20.548138      17.79521       16.777484      10.274069      10.274069      5.9317365    
     38200   295.63151     -1791.7686      19.527033      2045.371       6128.3981      20.540956      17.78899       16.771621      10.270478      10.270478      5.9296633    
     38300   301.98459     -1792.1845      19.946666      1707.0335      6128.7481      20.541347      17.789328      16.77194       10.270674      10.270674      5.9297762    
     38400   306.51358     -1792.485       20.245815      1217.3632      6129.4558      20.542138      17.790013      16.772585      10.271069      10.271069      5.9300044    
     38500   306.98095     -1792.5184      20.276686      1214.662       6129.4321      20.542111      17.78999       16.772564      10.271056      10.271056      5.9299968    
     38600   307.50025     -1792.556       20.310986      462.18318      6132.8654      20.545946      17.793311      16.775695      10.272973      10.272973      5.9311037    
     38700   305.81323     -1792.4458      20.199555      793.82349      6131.7174      20.544664      17.792201      16.774648      10.272332      10.272332      5.9307336    
     38800   292.61917     -1791.5769      19.328062      1296.8557      6131.1631      20.544045      17.791665      16.774142      10.272022      10.272022      5.9305549    
     38900   303.21343     -1792.2767      20.027833      1188.5025      6131.2323      20.544122      17.791732      16.774206      10.272061      10.272061      5.9305772    
     39000   279.20639     -1790.6955      18.442122      2029.976       6130.6733      20.543498      17.791191      16.773696      10.271749      10.271749      5.930397     
     39100   293.23521     -1791.6252      19.368753      311.42233      6136.2339      20.549707      17.796568      16.778765      10.274853      10.274853      5.9321894    
     39200   299.79874     -1792.0541      19.802286     -784.1594       6140.0359      20.55395       17.800243      16.78223       10.276975      10.276975      5.9334144    
     39300   291.00842     -1791.471       19.221669     -703.39745      6140.4883      20.554455      17.80068       16.782642      10.277228      10.277228      5.9335601    
     39400   293.49768     -1791.6332      19.386089     -754.29635      6140.8636      20.554874      17.801043      16.782984      10.277437      10.277437      5.933681     
     39500   292.52395     -1791.5688      19.321773     -537.00323      6140.4387      20.5544        17.800632      16.782597      10.2772        10.2772        5.9335441    
     39600   299.18367     -1792.0082      19.76166      -795.83874      6140.363       20.554315      17.800559      16.782528      10.277158      10.277158      5.9335197    
     39700   302.50168     -1792.2271      19.980821     -436.46267      6138.0745      20.551761      17.798348      16.780443      10.275881      10.275881      5.9327825    
     39800   298.37159     -1791.9576      19.70802       459.63536      6133.8663      20.547064      17.794279      16.776607      10.273532      10.273532      5.9314264    
     39900   289.441       -1791.3595      19.118138      1536.4779      6131.0014      20.543864      17.791508      16.773995      10.271932      10.271932      5.9305028    
     40000   283.34628     -1790.9582      18.71557       585.31852      6136.7275      20.550258      17.797046      16.779215      10.275129      10.275129      5.9323485    
     40100   302.78534     -1792.2416      19.999557     -932.32956      6140.0158      20.553928      17.800224      16.782212      10.276964      10.276964      5.9334079    
     40200   308.09262     -1792.594       20.350113     -1031.751       6139.0471      20.552847      17.799288      16.781329      10.276423      10.276423      5.9330958    
     40300   295.4628      -1791.7631      19.51589       10.448344      6136.6237      20.550142      17.796945      16.779121      10.275071      10.275071      5.932315     
     40400   287.4169      -1791.2328      18.984442      334.85842      6136.3265      20.54981       17.796658      16.77885       10.274905      10.274905      5.9322193    
     40500   309.97945     -1792.7241      20.474742     -2001.8818      6143.3238      20.557618      17.80342       16.785225      10.278809      10.278809      5.9344733    
     40600   306.08617     -1792.4642      20.217584     -925.10654      6139.7582      20.55364       17.799975      16.781977      10.27682       10.27682       5.9333249    
     40700   296.82892     -1791.8555      19.606125      230.32506      6136.8111      20.550351      17.797126      16.779292      10.275176      10.275176      5.9323754    
     40800   310.50363     -1792.7608      20.509365      209.60053      6133.2706      20.546399      17.793703      16.776064      10.273199      10.273199      5.9312344    
     40900   313.49761     -1792.9598      20.707123      506.32537      6131.5326      20.544458      17.792022      16.774479      10.272229      10.272229      5.930674     
     41000   296.04203     -1791.8068      19.554149      2530.0636      6125.4793      20.537695      17.786165      16.768957      10.268847      10.268847      5.9287217    
     41100   308.74878     -1792.6468      20.393454      2060.8466      6124.3365      20.536417      17.785059      16.767915      10.268209      10.268209      5.928353     
     41200   299.40836     -1792.0331      19.776501      1536.6426      6129.2815      20.541943      17.789845      16.772426      10.270972      10.270972      5.9299482    
     41300   295.42899     -1791.781       19.513656      215.14226      6135.1401      20.548486      17.795511      16.777768      10.274243      10.274243      5.9318369    
     41400   291.7161      -1791.5292      19.268413     -92.530995      6137.743       20.551392      17.798027      16.780141      10.275696      10.275696      5.9326757    
     41500   299.85404     -1792.0653      19.805939     -1300.4812      6141.126       20.555167      17.801296      16.783223      10.277583      10.277583      5.9337655    
     41600   289.99336     -1791.4066      19.154622     -309.9427       6138.5509      20.552293      17.798808      16.780877      10.276147      10.276147      5.932936     
     41700   306.20784     -1792.48        20.22562      -3105.5496      6148.6159      20.56352       17.808531      16.790044      10.28176       10.28176       5.9361768    
     41800   301.35332     -1792.1514      19.90497      -1925.5213      6144.88        20.559354      17.804923      16.786642      10.279677      10.279677      5.9349743    
     41900   306.15957     -1792.4656      20.222432     -1381.7031      6141.2727      20.55533       17.801438      16.783357      10.277665      10.277665      5.9338127    
     42000   307.0492      -1792.5218      20.281194     -783.19417      6138.2584      20.551967      17.798525      16.780611      10.275983      10.275983      5.9328418    
     42100   317.53444     -1793.2082      20.973764     -471.7882       6134.5653      20.547844      17.794955      16.777244      10.273922      10.273922      5.9316517    
     42200   309.77808     -1792.6946      20.461442      681.12444      6131.1189      20.543996      17.791622      16.774102      10.271998      10.271998      5.9305407    
     42300   298.58043     -1791.95        19.721815      2378.1584      6125.5997      20.537829      17.786282      16.769067      10.268915      10.268915      5.9287606    
     42400   295.08054     -1791.7166      19.49064       2052.7916      6128.2096      20.540746      17.788807      16.771449      10.270373      10.270373      5.9296025    
     42500   306.97767     -1792.505       20.276469      364.30987      6133.4325      20.546579      17.79386       16.776212      10.27329       10.27329       5.9312866    
     42600   296.10213     -1791.7885      19.558118      779.26371      6133.7283      20.54691       17.794146      16.776481      10.273455      10.273455      5.9313819    
     42700   302.03107     -1792.1801      19.949736      79.593367      6135.5934      20.548992      17.795949      16.778182      10.274496      10.274496      5.931983     
     42800   299.78075     -1792.0343      19.801098      301.69646      6135.172       20.548522      17.795542      16.777798      10.274261      10.274261      5.9318472    
     42900   302.15289     -1792.1966      19.957783     -703.1383       6138.7965      20.552567      17.799045      16.781101      10.276284      10.276284      5.9330151    
     43000   291.08794     -1791.4655      19.226922     -1099.5055      6143.0389      20.557301      17.803145      16.784966      10.27865       10.27865       5.9343815    
     43100   309.91893     -1792.7089      20.470745     -2562.9873      6146.3848      20.561032      17.806376      16.788013      10.280516      10.280516      5.9354588    
     43200   299.24734     -1792.0093      19.765865     -1330.4799      6141.5841      20.555678      17.801739      16.783641      10.277839      10.277839      5.933913     
     43300   297.60384     -1791.8977      19.657309      77.094081      6137.1342      20.550712      17.797439      16.779586      10.275356      10.275356      5.9324795    
     43400   310.86604     -1792.7758      20.533303     -34.184856      6133.9293      20.547134      17.79434       16.776665      10.273567      10.273567      5.9314467    
     43500   287.02472     -1791.1965      18.958538      1894.7204      6130.2467      20.543021      17.790778      16.773307      10.271511      10.271511      5.9302594    
     43600   303.95866     -1792.3104      20.077057      119.15254      6135.5908      20.548989      17.795947      16.778179      10.274495      10.274495      5.9319822    
[...]
     54500   297.08302     -1791.8728      19.622908      396.18723      6135.4393      20.54882       17.7958        16.778041      10.27441       10.27441       5.9319334    
     54600   306.07929     -1792.4708      20.217129      626.69347      6132.3138      20.54533       17.792778      16.775192      10.272665      10.272665      5.9309259    
     54700   307.88977     -1792.597       20.336715      929.68119      6130.7148      20.543544      17.791231      16.773734      10.271772      10.271772      5.9304104    
     54800   289.10407     -1791.3601      19.095883      1637.746       6131.2805      20.544176      17.791778      16.774249      10.272088      10.272088      5.9305928    
     54900   297.37778     -1791.9135      19.642377      738.55678      6133.1273      20.546239      17.793565      16.775933      10.273119      10.273119      5.9311882    
     55000   307.74114     -1792.602       20.326897     -1271.2186      6140.8923      20.554906      17.801071      16.78301       10.277453      10.277453      5.9336902    
     55100   289.52605     -1791.3964      19.123756     -273.23163      6140.3984      20.554355      17.800593      16.78256       10.277177      10.277177      5.9335312    
     55200   294.21354     -1791.7088      19.433374     -1004.0266      6141.8465      20.555971      17.801993      16.78388       10.277985      10.277985      5.9339976    
     55300   307.3992      -1792.5763      20.304312     -1387.7795      6141.3872      20.555458      17.801549      16.783461      10.277729      10.277729      5.9338496    
     55400   300.79338     -1792.1404      19.867984      44.450267      6135.3747      20.548748      17.795738      16.777982      10.274374      10.274374      5.9319125    
     55500   295.74589     -1791.8049      19.534588      949.22789      6132.392       20.545417      17.792853      16.775263      10.272709      10.272709      5.9309511    
     55600   289.2126      -1791.3775      19.103051      898.52238      6133.6682      20.546842      17.794088      16.776427      10.273421      10.273421      5.9313625    
     55700   288.53754     -1791.3315      19.058463      78.8838        6138.0973      20.551787      17.79837       16.780464      10.275893      10.275893      5.9327899    
     55800   305.01926     -1792.4159      20.147112     -1619.3708      6143.395       20.557698      17.803489      16.78529       10.278849      10.278849      5.9344962    
     55900   300.3525      -1792.1049      19.838863     -652.71603      6139.6416      20.55351       17.799862      16.781871      10.276755      10.276755      5.9332874    
     56000   305.17334     -1792.4245      20.157289     -443.60726      6136.8386      20.550382      17.797153      16.779317      10.275191      10.275191      5.9323843    
     56100   290.85679     -1791.4793      19.211654      808.68897      6134.3134      20.547563      17.794711      16.777015      10.273781      10.273781      5.9315705    
     56200   310.55963     -1792.7788      20.513064     -1397.9292      6141.0466      20.555078      17.80122       16.783151      10.277539      10.277539      5.9337399    
     56300   289.08766     -1791.357       19.094799     -542.05078      6141.0157      20.555044      17.80119       16.783123      10.277522      10.277522      5.93373      
     56400   298.06958     -1791.9527      19.688072     -1222.2823      6142.1927      20.556357      17.802327      16.784195      10.278178      10.278178      5.934109     
     56500   305.40829     -1792.4356      20.172808     -1495.6486      6142.0187      20.556163      17.802159      16.784036      10.278081      10.278081      5.934053     
     56600   286.13935     -1791.1608      18.900058      299.50933      6137.42        20.551031      17.797715      16.779847      10.275515      10.275515      5.9325716    
     56700   300.35418     -1792.099       19.838975     -556.82173      6138.7034      20.552463      17.798955      16.781016      10.276232      10.276232      5.9329851    
     56800   308.73132     -1792.6529      20.392301     -1800.3926      6143.3673      20.557667      17.803462      16.785265      10.278833      10.278833      5.9344873    
     56900   299.24947     -1792.0252      19.766006     -684.58593      6140.2595      20.5542        17.800459      16.782434      10.2771        10.2771        5.9334864    
     57000   300.46919     -1792.1083      19.846571      500.00503      6134.4911      20.547761      17.794883      16.777177      10.273881      10.273881      5.9316278    
     57100   299.86529     -1792.0643      19.806682      1164.5906      6131.5521      20.544479      17.792041      16.774497      10.27224       10.27224       5.9306804    
     57200   296.42519     -1791.8359      19.579457      893.69055      6133.0424      20.546144      17.793482      16.775856      10.273072      10.273072      5.9311608    
     57300   294.5061      -1791.7103      19.452698      390.05661      6136.0564      20.549509      17.796397      16.778604      10.274754      10.274754      5.9321322    
     57400   301.14906     -1792.1503      19.891478     -384.97762      6137.5309      20.551155      17.797822      16.779948      10.275577      10.275577      5.9326074    
     57500   295.16724     -1791.7537      19.496367     -870.93966      6141.3934      20.555465      17.801555      16.783467      10.277733      10.277733      5.9338516    
     57600   289.19425     -1791.3572      19.101839     -650.6798       6141.3786      20.555449      17.801541      16.783453      10.277724      10.277724      5.9338469    
     57700   306.38666     -1792.4966      20.237431     -1691.1982      6143.1677      20.557444      17.803269      16.785083      10.278722      10.278722      5.934423     
     57800   313.10402     -1792.9462      20.681126     -774.78027      6137.3718      20.550977      17.797668      16.779803      10.275489      10.275489      5.9325561    
     57900   302.61831     -1792.2523      19.988525      1730.4491      6127.6691      20.540142      17.788285      16.770955      10.270071      10.270071      5.9294282    
     58000   299.12195     -1792.0192      19.757583      2575.6661      6124.5774      20.536687      17.785292      16.768134      10.268343      10.268343      5.9284308    
     58100   292.71493     -1791.5943      19.334387      2317.8923      6126.8514      20.539228      17.787493      16.770209      10.269614      10.269614      5.9291644    
     58200   307.70722     -1792.5794      20.324657      601.94773      6131.5909      20.544523      17.792079      16.774533      10.272261      10.272261      5.9306929    
     58300   294.53505     -1791.7048      19.45461       1277.7103      6130.5064      20.543311      17.79103       16.773543      10.271656      10.271656      5.9303432    
     58400   306.82487     -1792.5128      20.266376      222.43256      6133.447       20.546595      17.793874      16.776225      10.273298      10.273298      5.9312912    
     58500   284.0424      -1791.008       18.76155       1395.8023      6132.8068      20.545881      17.793255      16.775641      10.27294       10.27294       5.9310849    
     58600   298.34062     -1791.9548      19.705975     -498.90474      6138.6303      20.552382      17.798885      16.780949      10.276191      10.276191      5.9329616    
     58700   290.15686     -1791.411       19.165422     -319.0329       6139.5029      20.553356      17.799728      16.781745      10.276678      10.276678      5.9332427    
     58800   294.63742     -1791.7074      19.461372     -1635.1737      6144.4761      20.558904      17.804533      16.786275      10.279452      10.279452      5.9348443    
     58900   300.4635      -1792.0887      19.846195     -1591.439       6143.4175      20.557723      17.80351       16.785311      10.278861      10.278861      5.9345035    
     59000   304.60804     -1792.3623      20.11995      -1021.3503      6139.8527      20.553746      17.800066      16.782063      10.276873      10.276873      5.9333554    
     59100   317.81788     -1793.233       20.992486     -755.34635      6135.7944      20.549216      17.796143      16.778365      10.274608      10.274608      5.9320478    
     59200   296.90539     -1791.8515      19.611175      951.67266      6132.2294      20.545236      17.792696      16.775115      10.272618      10.272618      5.9308987    
     59300   293.48664     -1791.6257      19.38536       1467.4873      6131.0113      20.543875      17.791518      16.774004      10.271938      10.271938      5.930506     
     59400   291.42807     -1791.4907      19.249388      2400.3947      6127.1927      20.539609      17.787823      16.770521      10.269805      10.269805      5.9292745    
     59500   290.03313     -1791.4052      19.157249      1919.9549      6129.2166      20.541871      17.789782      16.772367      10.270935      10.270935      5.9299273    
     59600   297.01525     -1791.8805      19.618432      142.6876       6136.4249      20.54992       17.796753      16.77894       10.27496       10.27496       5.932251     
     59700   305.05679     -1792.4092      20.149591     -1873.0775      6143.8738      20.558232      17.803951      16.785726      10.279116      10.279116      5.9346504    
     59800   306.7787      -1792.5122      20.263327     -2638.8679      6146.868       20.561571      17.806843      16.788452      10.280786      10.280786      5.9356143    
     59900   302.48516     -1792.2295      19.97973      -2397.7279      6147.14        20.561874      17.807106      16.7887        10.280937      10.280937      5.9357018    
     60000   285.41716     -1791.1028      18.852356     -970.46026      6143.0541      20.557318      17.803159      16.78498       10.278659      10.278659      5.9343864    
     60100   300.76186     -1792.118       19.865902     -1254.4701      6141.7254      20.555835      17.801876      16.783769      10.277918      10.277918      5.9339585    
     60200   299.34713     -1792.0227      19.772457      537.65082      6134.4838      20.547753      17.794876      16.77717       10.273877      10.273877      5.9316254    
     60300   286.46511     -1791.1729      18.921574      1920.7755      6129.7815      20.542502      17.790328      16.772882      10.271251      10.271251      5.9301094    
     60400   310.7487      -1792.7787      20.525553      98.932907      6133.7616      20.546947      17.794178      16.776512      10.273473      10.273473      5.9313926    
     60500   303.4906      -1792.2998      20.046141      281.01246      6134.0695      20.547291      17.794476      16.776793      10.273645      10.273645      5.9314919    
     60600   316.39979     -1793.1534      20.898818     -350.50975      6134.1086      20.547334      17.794513      16.776828      10.273667      10.273667      5.9315045    
     60700   306.69121     -1792.5085      20.257548      525.88378      6132.148       20.545145      17.792617      16.775041      10.272572      10.272572      5.9308725    
     60800   283.68115     -1790.9921      18.737689      1196.6649      6132.4956      20.545533      17.792954      16.775358      10.272767      10.272767      5.9309845    
     60900   299.74834     -1792.0513      19.798958      241.05483      6135.2848      20.548647      17.795651      16.7779        10.274324      10.274324      5.9318836    
     61000   304.41825     -1792.3586      20.107414     -452.05823      6136.7122      20.550241      17.797031      16.779201      10.27512       10.27512       5.9323436    
     61100   312.06573     -1792.8616      20.612545     -1630.6579      6140.4441      20.554406      17.800638      16.782602      10.277203      10.277203      5.9335459    
     61200   293.07936     -1791.6038      19.358458     -1044.4453      6142.0896      20.556242      17.802227      16.784101      10.278121      10.278121      5.9340758    
     61300   299.27125     -1792.013       19.767445     -860.97342      6139.9235      20.553825      17.800134      16.782128      10.276912      10.276912      5.9333782    
     61400   303.16971     -1792.2682      20.024946     -170.9952       6136.1712      20.549637      17.796508      16.778708      10.274819      10.274819      5.9321692    
     61500   296.94704     -1791.8583      19.613926      729.46553      6132.531       20.545573      17.792988      16.77539       10.272786      10.272786      5.930996     
     61600   310.93809     -1792.788       20.538062     -500.49315      6135.7732      20.549193      17.796123      16.778346      10.274596      10.274596      5.932041     
     61700   286.76885     -1791.1912      18.941637      868.9184       6133.7061      20.546885      17.794124      16.776461      10.273442      10.273442      5.9313748    
     61800   299.17278     -1792.0141      19.760941     -1092.2408      6140.8976      20.554912      17.801076      16.783015      10.277456      10.277456      5.9336919    
     61900   295.95046     -1791.7968      19.5481       -388.15696      6139.0258      20.552823      17.799267      16.78131       10.276412      10.276412      5.933089     
     62000   292.01695     -1791.5413      19.288284     -748.63415      6140.3434      20.554293      17.80054       16.78251       10.277147      10.277147      5.9335134    
     62100   302.37897     -1792.2268      19.972716     -284.28695      6137.1493      20.550729      17.797453      16.7796        10.275364      10.275364      5.9324844    
     62200   292.24198     -1791.5548      19.303148      1690.8368      6129.8426      20.54257       17.790387      16.772938      10.271285      10.271285      5.9301291    
     62300   291.44933     -1791.4989      19.250792      2242.5595      6126.9957      20.539389      17.787633      16.770341      10.269695      10.269695      5.9292109    
     62400   299.78431     -1792.0467      19.801334      1784.829       6127.9626      20.54047       17.788568      16.771223      10.270235      10.270235      5.9295228    
     62500   293.17857     -1791.6138      19.365012      1467.6343      6130.7638      20.543599      17.791279      16.773778      10.271799      10.271799      5.9304262    
     62600   302.17252     -1792.2085      19.95908       375.96976      6133.4888      20.546642      17.793914      16.776263      10.273321      10.273321      5.9313047    
     62700   300.76918     -1792.1188      19.866386     -1116.4476      6140.7203      20.554714      17.800905      16.782854      10.277357      10.277357      5.9336348    
     62800   286.58052     -1791.1795      18.929198     -940.48127      6143.0398      20.557302      17.803145      16.784966      10.278651      10.278651      5.9343818    
     62900   300.0609      -1792.0672      19.819603     -1940.1955      6145.0367      20.559529      17.805074      16.786785      10.279764      10.279764      5.9350248    
     63000   306.29827     -1792.4797      20.231593     -1326.0487      6141.0301      20.55506       17.801204      16.783136      10.27753       10.27753       5.9337346    
     63100   303.56688     -1792.2985      20.051179     -114.54395      6136.1752      20.549641      17.796512      16.778712      10.274821      10.274821      5.9321705    
     63200   298.77815     -1791.98        19.734875      846.53555      6132.5753      20.545622      17.793031      16.77543       10.272811      10.272811      5.9310102    
     63300   289.716       -1791.3805      19.136302      1886.0189      6129.2818      20.541943      17.789845      16.772427      10.270972      10.270972      5.9299483    
     63400   304.6621      -1792.3638      20.123521      138.54736      6134.8914      20.548208      17.79527       16.777542      10.274104      10.274104      5.9317568    
     63500   304.82431     -1792.3766      20.134235     -775.74612      6138.8567      20.552634      17.799104      16.781156      10.276317      10.276317      5.9330345    
     63600   303.31136     -1792.2774      20.034302     -530.81376      6137.5919      20.551223      17.797881      16.780003      10.275611      10.275611      5.932627     
     63700   296.56615     -1791.8335      19.588768      37.919615      6136.3602      20.549848      17.79669       16.778881      10.274924      10.274924      5.9322301    
     63800   290.64194     -1791.4423      19.197462      942.19555      6133.5073      20.546663      17.793932      16.77628       10.273331      10.273331      5.9313107    
     63900   299.4124      -1792.0241      19.776768     -115.88576      6136.724       20.550254      17.797042      16.779212      10.275127      10.275127      5.9323474    
     64000   294.51787     -1791.7026      19.453475     -71.363487      6137.2681      20.550861      17.797568      16.779708      10.275431      10.275431      5.9325227    
     64100   296.41872     -1791.8282      19.57903       452.90646      6135.1         20.548441      17.795472      16.777732      10.274221      10.274221      5.931824     
     64200   295.41657     -1791.7611      19.512836      467.40678      6135.0958      20.548437      17.795468      16.777728      10.274218      10.274218      5.9318227    
     64300   297.3844      -1791.89        19.642815     -321.74729      6137.7633      20.551414      17.798047      16.780159      10.275707      10.275707      5.9326822    
     64400   306.3391      -1792.4795      20.23429      -934.13443      6139.1238      20.552933      17.799362      16.781399      10.276466      10.276466      5.9331206    
     64500   287.79779     -1791.2543      19.0096        791.5612       6135.5669      20.548962      17.795923      16.778158      10.274481      10.274481      5.9319745    
     64600   290.1335      -1791.4099      19.163879      983.13132      6133.8973      20.547098      17.794309      16.776636      10.273549      10.273549      5.9314364    
     64700   301.38674     -1792.1531      19.907177      237.38638      6135.3769      20.54875       17.79574       16.777984      10.274375      10.274375      5.9319132    
     64800   296.39747     -1791.8238      19.577626     -624.69927      6140.1852      20.554117      17.800387      16.782366      10.277058      10.277058      5.9334625    
     64900   300.63807     -1792.1045      19.857726     -1468.3543      6143.5505      20.557871      17.803639      16.785432      10.278936      10.278936      5.9345463    
     65000   294.51707     -1791.709       19.453422     -654.46457      6140.3799      20.554334      17.800576      16.782544      10.277167      10.277167      5.9335252    
Loop time of 15.7002 on 8 procs for 65000 steps with 512 atoms

Performance: 715.405 ns/day, 0.034 hours/ns, 4140.076 timesteps/s, 2.120 Matom-step/s
94.4% CPU use with 8 MPI tasks x no OpenMP threads

MPI task timing breakdown:
Section |  min time  |  avg time  |  max time  |%varavg| %total
---------------------------------------------------------------
Pair    | 8.149      | 8.2462     | 8.375      |   2.6 | 52.52
Neigh   | 1.7253     | 1.783      | 1.8164     |   2.3 | 11.36
Comm    | 3.9026     | 4.021      | 4.0924     |   2.9 | 25.61
Output  | 0.022292   | 0.0237     | 0.033013   |   2.3 |  0.15
Modify  | 1.2215     | 1.2415     | 1.2551     |   1.0 |  7.91
Other   |            | 0.3848     |            |       |  2.45

Nlocal:             64 ave          71 max          55 min
Histogram: 1 0 0 2 0 1 2 0 0 2
Nghost:            665 ave         674 max         658 min
Histogram: 2 0 0 2 0 1 2 0 0 1
Neighs:        1730.12 ave        1983 max        1561 min
Histogram: 2 0 1 3 0 0 0 0 1 1

Total # of neighbors = 13841
Ave neighs/atom = 27.033203
Neighbor list builds = 3848
Dangerous builds = 0
write_restart Restart.final
System init for write_restart ...
Total wall time: 0:00:15
