LAMMPS (4 Jan 2019)
# 3D copper block simulation
boundary    p p p
units       metal
atom_style  atomic

# geometry
read_data	data.pos
  triclinic box = (0 0 0) to (20.4495 17.7098 16.697) with tilt (10.2248 10.2248 5.90327)
  2 by 2 by 2 MPI processor grid
  reading atoms ...
  512 atoms

# EAM potential
pair_style  	eam/opt
pair_coeff   	* * cuu3.eam
neighbor       0.5 nsq
neigh_modify   every 1 delay 0 check yes

#Langevin random seed
variable r equal 57085
variable t equal 300
variable d equal 1

# initialize
velocity all create $t 28459 rot yes dist gaussian mom yes
velocity all create 300 28459 rot yes dist gaussian mom yes
reset_timestep 0

# fixes
fix      1 all npt temp $t $t $d iso 1. 1. 1. pchain 8 drag 1.0
fix      1 all npt temp 300 $t $d iso 1. 1. 1. pchain 8 drag 1.0
fix      1 all npt temp 300 300 $d iso 1. 1. 1. pchain 8 drag 1.0
fix      1 all npt temp 300 300 1 iso 1. 1. 1. pchain 8 drag 1.0
fix      2 all phonon 10 50000 500000 map.in CuPhonon

#
timestep 2e-3

# output
#                    1    2    3  4  5     6   7  8  9  10 11 12
thermo_style  custom step temp pe ke press vol lx ly lz xy xz yz
thermo  100

restart 2000000 restart.one restart.two

# execution
run 	 65000
Neighbor list info ...
  update every 1 steps, delay 0 steps, check yes
  max neighbors/atom: 2000, page size: 100000
  master list distance cutoff = 5.45
  ghost atom cutoff = 5.45
  1 neighbor lists, perpetual/occasional/extra = 1 0 0
  (1) pair eam/opt, perpetual
      attributes: half, newton on
      pair build: half/nsq/newton
      stencil: none
      bin: none
Per MPI rank memory allocation (min/avg/max) = 3.147 | 3.147 | 3.147 Mbytes
Step Temp PotEng KinEng Press Volume Lx Ly Lz Xy Xz Yz 
       0          300     -1812.48     19.81558    3500.1579    6046.9291    20.449528    17.709811     16.69697    10.224764    10.224764    5.9032703 
     100    153.63448   -1802.7317    10.147854    9986.2625    6046.0365    20.448522    17.708939    16.696148    10.224261    10.224261    5.9029798 
     200    147.67118   -1802.0348    9.7539669    6250.7952    6065.0621    20.469948    17.727495    16.713643    10.234974    10.234974    5.9091651 
     300    159.47212   -1802.4461    10.533442    1407.8811    6085.0856    20.492451    17.746983    16.732016    10.246225    10.246225    5.9156609 
     400    153.03918   -1801.6604    10.108534   -1164.3781    6098.8523    20.507893    17.760356    16.744624    10.253946    10.253946    5.9201187 
     500    161.89469   -1801.8447    10.693457   -3350.4327    6108.9732    20.519231    17.770175    16.753882    10.259615    10.259615    5.9233917 
     600    153.61967   -1800.8794    10.146877   -2833.6922    6109.6921    20.520036    17.770872    16.754539    10.260018    10.260018     5.923624 
     700    160.07666    -1800.886    10.573373   -2267.0751     6107.398    20.517467    17.768647    16.752441    10.258733    10.258733    5.9228825 
     800    165.71773   -1800.8388    10.945977   -973.14295    6102.1475    20.511586    17.763554    16.747639    10.255793    10.255793    5.9211847 
     900    183.16791   -1801.5704    12.098595    -481.2926    6098.6552    20.507672    17.760165    16.744444    10.253836    10.253836    5.9200549 
    1000    162.12784   -1799.7527    10.708858    2655.8292    6089.4695    20.497371    17.751244    16.736033    10.248685    10.248685    5.9170812 
    1100     179.7893   -1800.4849    11.875431    2041.5581    6090.4382    20.498457    17.752185     16.73692    10.249229    10.249229    5.9173949 
    1200    189.40512   -1800.6902    12.510574    1072.3926    6094.0895    20.502553    17.755732    16.740264    10.251276    10.251276    5.9185772 
    1300    183.89007   -1799.8915    12.146295    1062.6167    6096.4993    20.505255    17.758072    16.742471    10.252628    10.252628    5.9193573 
    1400    182.98401   -1799.4048    12.086448    612.90571    6100.5194    20.509761    17.761974     16.74615    10.254881    10.254881    5.9206581 
    1500    185.76648   -1799.1565    12.270235   -32.923091    6104.4764    20.514195    17.765814     16.74977    10.257097    10.257097    5.9219379 
    1600    193.85333   -1799.2602    12.804387    -672.5541      6107.52    20.517603    17.768766    16.752553    10.258802    10.258802    5.9229219 
    1700    195.53426   -1798.9412    12.915416    -463.8752    6107.7393    20.517849    17.768978    16.752754    10.258924    10.258924    5.9229928 
    1800    204.43771    -1799.105    13.503506   -1167.5521    6111.2648    20.521796    17.772397    16.755976    10.260898    10.260898    5.9241322 
    1900    186.79101   -1797.5108    12.337907    78.609966    6109.9579    20.520333     17.77113    16.754782    10.260166    10.260166    5.9237099 
    2000    201.14689   -1798.0381    13.286141   -773.51529    6112.8932    20.523619    17.773975    16.757464    10.261809    10.261809    5.9246584 
    2100    216.67928    -1798.642    14.312086   -1000.6092    6112.4074    20.523075    17.773504     16.75702    10.261537    10.261537    5.9245014 
    2200    201.77325   -1797.2415    13.327513    1155.3349      6106.66     20.51664    17.767932    16.751767     10.25832     10.25832    5.9226439 
    2300     219.0735    -1797.967    14.470229    630.75786    6107.7431    20.517853    17.768982    16.752757    10.258927    10.258927     5.922994 
    2400    217.77445   -1797.4742    14.384424    1198.4679    6106.7585    20.516751    17.768027    16.751857    10.258375    10.258375    5.9226758 
    2500    221.50232   -1797.3153    14.630657    1042.4014    6108.4131    20.518603    17.769632     16.75337    10.259302    10.259302    5.9232106 
    2600    216.55231     -1796.59    14.303699    1012.7622    6111.2887    20.521823     17.77242    16.755998    10.260911    10.260911      5.92414 
    2700    229.14216   -1797.0232    15.135283   -1003.8541    6119.1761    20.530648    17.780062    16.763204    10.265324    10.265324    5.9266875 
    2800    222.25966   -1796.1788     14.68068   -1125.6697    6121.6448    20.533408    17.782453    16.765458    10.266704    10.266704    5.9274844 
    2900    237.62264   -1796.8067    15.695435   -2270.1682    6125.7789    20.538029    17.786455    16.769231    10.269015    10.269015    5.9288184 
    3000    227.45917   -1795.7564    15.024118   -941.71894    6123.0716    20.535003    17.783835     16.76676    10.267502    10.267502    5.9279449 
    3100    232.68181   -1795.7269    15.369084   -423.26342    6121.4204    20.533157    17.782236    16.765253    10.266579    10.266579    5.9274119 
    3200    245.29202   -1796.1941    16.202012   -303.98063     6119.194    20.530668     17.78008     16.76322    10.265334    10.265334    5.9266933 
    3300    249.66918   -1796.1207    16.491132    582.50225    6116.6165    20.527785    17.777583    16.760866    10.263892    10.263892     5.925861 
    3400     253.0533   -1795.9899     16.71466    1132.7509    6114.7857    20.525736    17.775809    16.759194    10.262868    10.262868    5.9252697 
    3500    249.97708   -1795.4408     16.51147    1194.5604    6116.0069    20.527103    17.776992    16.760309    10.263551    10.263551    5.9256641 
    3600    265.02578   -1796.0966    17.505465    -642.3017    6122.8558    20.534762    17.783626    16.766563    10.267381    10.267381    5.9278752 
    3700    250.97751   -1794.8346     16.57755   -458.00727     6125.888    20.538151    17.786561     16.76933    10.269076    10.269076    5.9288536 
    3800    247.00846   -1794.2486    16.315386    272.60882    6124.0609    20.536109    17.784792    16.767663    10.268055    10.268055    5.9282641 
    3900    259.11124   -1794.7316    17.114799   -110.56674    6125.1921    20.537374    17.785887    16.768695    10.268687    10.268687    5.9286291 
    4000    263.88877   -1794.7414    17.430364    81.600833    6124.1127    20.536167    17.784843     16.76771    10.268084    10.268084    5.9282808 
    4100    267.37784   -1794.6724    17.660823    126.96443    6124.3198    20.536399    17.785043    16.767899    10.268199    10.268199    5.9283476 
    4200    262.32294   -1794.0483    17.326938    149.22636    6126.2494    20.538555    17.786911     16.76966    10.269278    10.269278    5.9289702 
    4300    258.83395   -1793.5345    17.096483    70.363545    6128.4149    20.540975    17.789006    16.771636    10.270487    10.270487    5.9296687 
    4400    266.20763    -1793.748    17.583529   -161.64188    6128.6329    20.541218    17.789217    16.771835    10.270609    10.270609     5.929739 
    4500    268.26448   -1793.6199    17.719388    130.09322    6127.9152    20.540417    17.788523     16.77118    10.270208    10.270208    5.9295075 
    4600    283.04422   -1794.3404    18.695618   -881.69986     6130.927    20.543781    17.791436    16.773927    10.271891    10.271891    5.9304788 
    4700    264.87028   -1792.8951    17.495194    547.86895    6128.9644    20.541589    17.789538    16.772137    10.270794    10.270794    5.9298459 
    4800    282.82949   -1793.8457    18.681435   -347.39286    6130.8644    20.543711    17.791376     16.77387    10.271856    10.271856    5.9304586 
    4900    274.46286   -1793.0634    18.128803    846.13766    6128.2318     20.54077    17.788829    16.771469    10.270385    10.270385    5.9296096 
    5000    290.82458   -1793.9284    19.209526   -215.35877    6130.7309    20.543562    17.791247    16.773748    10.271781    10.271781    5.9304156 
    5100    293.73606    -1793.912    19.401835   -674.91605    6133.2595    20.546386    17.793692    16.776054    10.273193    10.273193    5.9312308 
    5200    281.88317   -1792.9324    18.618928    588.04634    6129.8906    20.542624    17.790434    16.772982    10.271312    10.271312    5.9301446 
    5300    285.79998   -1793.0013    18.877641    1099.0797    6127.4772    20.539927    17.788099     16.77078    10.269964    10.269964    5.9293663 
    5400    289.25189   -1793.0535    19.105647    955.36781    6128.5066    20.541077    17.789095    16.771719    10.270539    10.270539    5.9296983 
    5500    296.41797   -1793.3564     19.57898    42.362007    6130.8693    20.543717    17.791381    16.773874    10.271858    10.271858    5.9304602 
    5600    284.76969   -1792.4236    18.809589    529.61772     6132.305     20.54532    17.792769    16.775184     10.27266     10.27266    5.9309231 
    5700    283.13897   -1792.1651    18.701877    1040.2924    6130.6492    20.543471    17.791168    16.773674    10.271735    10.271735    5.9303892 
    5800    287.17627   -1792.2904    18.968548    140.27482    6134.3541    20.547608    17.794751    16.777052    10.273804    10.273804    5.9315836 
    5900    296.17446   -1792.7527    19.562896   -1102.4808    6138.5237    20.552263    17.798782    16.780852    10.276131    10.276131    5.9329272 
    6000    283.81144    -1791.813    18.746295   -834.75543    6139.8091    20.553697    17.800024    16.782023    10.276849    10.276849    5.9333413 
    6100    290.33653   -1792.1321    19.177289   -1443.6424    6142.4865    20.556684    17.802611    16.784463    10.278342    10.278342    5.9342036 
    6200    288.14384   -1791.8872    19.032458   -459.28927    6138.8614     20.55264    17.799108     16.78116     10.27632     10.27632     5.933036 
    6300    301.36474   -1792.6685    19.905724   -762.76882     6138.022    20.551703    17.798297    16.780395    10.275851    10.275851    5.9327656 
    6400     296.7044   -1792.2739      19.5979   -206.46928    6136.1468     20.54961    17.796484    16.778686    10.274805    10.274805    5.9321614 
    6500    308.99312   -1793.0099    20.409593   -807.24483    6137.0899    20.550662    17.797396    16.779546    10.275331    10.275331    5.9324653 
    6600    308.46252   -1792.9063    20.374546   -772.73249    6136.5906    20.550105    17.796913    16.779091    10.275053    10.275053    5.9323044 
    6700    293.66094   -1791.8669    19.396873    633.80048    6134.1814    20.547416    17.794584    16.776895    10.273708    10.273708    5.9315279 
    6800    298.34906   -1792.1246    19.706533    1044.9493    6131.1518    20.544032    17.791654    16.774132    10.272016    10.272016    5.9305513 
    6900    298.32111   -1792.0812    19.704686      1341.69    6129.6192     20.54232    17.790171    16.772734     10.27116     10.27116    5.9300571 
    7000    302.11091   -1792.2929     19.95501    1135.7652    6130.5418    20.543351    17.791064    16.773576    10.271675    10.271675    5.9303546 
    7100    292.61558   -1791.6389    19.327825    575.82293    6134.5916    20.547874    17.794981    16.777269    10.273937    10.273937    5.9316602 
    7200    304.46487   -1792.3965    20.110493   -308.42331    6136.5662    20.550078     17.79689    16.779068    10.275039    10.275039    5.9322965 
    7300    304.53607   -1792.3771    20.115197   -900.51626    6139.2361    20.553058     17.79947    16.781501    10.276529    10.276529    5.9331567 
    7400    298.03398   -1791.9296    19.685721   -635.59977    6139.6579    20.553529    17.799878    16.781886    10.276764    10.276764    5.9332926 
    7500    301.57323   -1792.1456    19.919495   -439.72066     6138.643    20.552396    17.798897    16.780961    10.276198    10.276198    5.9329657 
    7600    295.18213    -1791.715    19.497351   -30.999752    6137.3754    20.550981    17.797672    16.779806    10.275491    10.275491    5.9325573 
    7700    298.18429   -1791.9013    19.695649    346.32127    6136.0584    20.549511    17.796399    16.778606    10.274756    10.274756    5.9321329 
    7800    289.12237   -1791.2988    19.097092    624.49651    6136.4821    20.549984    17.796808    16.778992    10.274992    10.274992    5.9322694 
    7900    300.21355     -1792.03    19.829685    10.117116    6136.5951     20.55011    17.796918    16.779095    10.275055    10.275055    5.9323059 
    8000    301.91536    -1792.145    19.942094    93.936026    6135.8002    20.549223    17.796149     16.77837    10.274611    10.274611    5.9320497 
    8100    291.11079   -1791.4323    19.228431    971.28909    6134.2071    20.547444    17.794609    16.776918    10.273722    10.273722    5.9315362 
    8200     308.3871   -1792.5793    20.369564   -267.94074    6136.7818    20.550319    17.797098    16.779265    10.275159    10.275159     5.932366 
    8300    316.84846   -1793.1434    20.928454   -671.56012    6136.2567    20.549733     17.79659    16.778786    10.274866    10.274866    5.9321968 
    8400    298.28986   -1791.9217    19.702622    678.63427    6133.8612    20.547058    17.794274    16.776603    10.273529    10.273529    5.9314247 
    8500    301.62438   -1792.1451    19.922873    901.24284    6131.7374    20.544686     17.79222    16.774666    10.272343    10.272343    5.9307401 
    8600    304.42604   -1792.3358    20.107928    218.80632    6133.9682    20.547178    17.794378      16.7767    10.273589    10.273589    5.9314592 
    8700    301.71783   -1792.1616    19.929046    -85.48897    6136.8427    20.550387    17.797157     16.77932    10.275193    10.275193    5.9323856 
    8800    320.36707   -1793.4008    21.160864   -1542.0728    6139.7327    20.553612     17.79995    16.781954    10.276806    10.276806    5.9333167 
    8900    311.82142   -1792.8432    20.596408   -653.14658    6136.6651    20.550188    17.796985    16.779159    10.275094    10.275094    5.9323284 
    9000    305.03101   -1792.4035    20.147888    496.81647    6133.0911    20.546198    17.793529      16.7759    10.273099    10.273099    5.9311765 
    9100     294.5145   -1791.7089    19.453252    1320.7484    6131.2341    20.544124    17.791733    16.774207    10.272062    10.272062    5.9305778 
    9200    307.63914    -1792.574    20.320161     921.5712    6130.8477    20.543693     17.79136    16.773855    10.271846    10.271846    5.9304532 
    9300    309.33635   -1792.6881    20.432264    747.98091     6130.885    20.543734    17.791396    16.773889    10.271867    10.271867    5.9304653 
    9400    298.32366   -1791.9578    19.704855    866.70755     6132.698    20.545759    17.793149    16.775542     10.27288     10.27288    5.9310498 
    9500    298.71568    -1791.985    19.730748    1192.4008    6130.9529     20.54381    17.791461    16.773951    10.271905    10.271905    5.9304871 
    9600    305.17077   -1792.4144    20.157119   -95.360067    6134.6763    20.547968    17.795062    16.777346    10.273984    10.273984    5.9316875 
    9700    300.52443   -1792.1028     19.85022    110.77401    6135.6151    20.549016     17.79597    16.778201    10.274508    10.274508      5.93199 
    9800    288.72479   -1791.3285    19.070831   -413.22182    6139.4337    20.553278    17.799661    16.781681    10.276639    10.276639    5.9332204 
    9900    308.85697   -1792.6521      20.4006   -2332.2168    6145.0933    20.559592    17.805129    16.786837    10.279796    10.279796     5.935043 
   10000    301.63484   -1792.1751    19.923565   -1721.4864    6142.7604     20.55699    17.802876    16.784712    10.278495    10.278495    5.9342918 
   10100    306.13476    -1792.465    20.220793   -1508.7545    6141.5245    20.555611    17.801682    16.783586    10.277806    10.277806    5.9338939 
   10200    305.32247    -1792.407    20.167139   -1291.1334    6141.1804    20.555227    17.801349    16.783273    10.277614    10.277614     5.933783 
   10300    302.62567   -1792.2322    19.989011   -507.08637    6137.9079    20.551576    17.798187    16.780291    10.275788    10.275788    5.9327288 
   10400    306.15106   -1792.4608     20.22187    1097.6246    6130.4466    20.543245    17.790972    16.773489    10.271622    10.271622    5.9303239 
   10500     303.1395   -1792.2585     20.02295     2265.552    6125.7201    20.537964    17.786398    16.769177    10.268982    10.268982    5.9287994 
   10600    302.32741   -1792.2041     19.96931    2222.3456    6125.1341    20.537309    17.785831    16.768642    10.268654    10.268654    5.9286104 
   10700    300.18841    -1792.062    19.828025    2371.6319    6125.1279    20.537302    17.785825    16.768637    10.268651    10.268651    5.9286084 
   10800    295.23397   -1791.7432    19.500775    2066.9202    6127.7344    20.540215    17.788348    16.771015    10.270107    10.270107    5.9294492 
   10900    293.65105    -1791.635     19.39622    1615.2693    6129.4838    20.542169     17.79004    16.772611    10.271085    10.271085    5.9300134 
   11000    292.40131   -1791.5586    19.313672    850.26464    6133.2139    20.546335    17.793648    16.776012    10.273168    10.273168    5.9312161 
   11100     294.1489   -1791.6841    19.429104   -965.23647    6142.0145    20.556158    17.802155    16.784033    10.278079    10.278079    5.9340517 
   11200    311.58955   -1792.8305    20.581093   -3090.7025    6148.3239    20.563194    17.808249    16.789778    10.281597    10.281597    5.9360829 
   11300    311.24946   -1792.8097    20.558629   -3060.3966     6148.461    20.563347    17.808381    16.789903    10.281674    10.281674     5.936127 
   11400    305.46259   -1792.4349    20.176395   -1413.3226    6142.1066    20.556261    17.802244    16.784117     10.27813     10.27813    5.9340813 
   11500    296.14017    -1791.823    19.560631   -145.56453    6137.1282    20.550705    17.797433    16.779581    10.275353    10.275353    5.9324776 
   11600    311.51335   -1792.8359    20.576059     -75.8122    6134.7692    20.548072    17.795152     16.77743    10.274036    10.274036    5.9317174 
   11700    303.77654   -1792.3252    20.065028    370.80789    6133.4809    20.546633    17.793906    16.776256    10.273317    10.273317    5.9313022 
   11800    304.22169   -1792.3496    20.094431    411.84215    6133.8262    20.547019     17.79424    16.776571    10.273509    10.273509    5.9314135 
   11900    295.68457   -1791.7814    19.530538    864.81542    6133.1583    20.546273    17.793594    16.775962    10.273137    10.273137    5.9311982 
   12000    299.86874   -1792.0545     19.80691    470.18728    6134.3256    20.547577    17.794723    16.777026    10.273788    10.273788    5.9315744 
   12100    299.30362   -1792.0142    19.769583    554.23806    6133.4654    20.546616    17.793892    16.776242    10.273308    10.273308    5.9312972 
   12200    287.53706   -1791.2367    18.992379    997.46536    6134.2689    20.547513    17.794668    16.776974    10.273757    10.273757    5.9315561 
   12300    303.00197   -1792.2574    20.013866   -517.63971     6138.123    20.551816    17.798394    16.780487    10.275908    10.275908    5.9327982 
   12400    310.37777   -1792.7436    20.501052    -741.2801    6138.1769    20.551876    17.798447    16.780536    10.275938    10.275938    5.9328155 
   12500    296.29833   -1791.8137    19.571078   -13.320171    6137.8353    20.551495    17.798116    16.780225    10.275747    10.275747    5.9327054 
   12600    319.47156    -1793.348    21.101714   -839.23358    6136.6401     20.55016    17.796961    16.779136     10.27508     10.27508    5.9323203 
   12700    306.86857   -1792.5156    20.269262    -19.29417     6135.258    20.548618    17.795625    16.777876    10.274309    10.274309    5.9318749 
   12800    280.53531   -1790.7772      18.5299    2013.4825    6130.7737     20.54361    17.791288    16.773787    10.271805    10.271805    5.9304294 
   12900     313.4674   -1792.9543    20.705128   -198.40458    6134.5665    20.547846    17.794956    16.777246    10.273923    10.273923    5.9316521 
   13000    299.54749   -1792.0374    19.785691      18.1651    6136.7327    20.550264    17.797051     16.77922    10.275132    10.275132    5.9323502 
   13100    299.28573    -1792.023    19.768401    -47.13109    6136.6037     20.55012    17.796926    16.779103     10.27506     10.27506    5.9323086 
   13200    316.26651   -1793.1397    20.890014   -1854.1628    6142.0134    20.556157    17.802154    16.784032    10.278078    10.278078    5.9340513 
   13300    295.96128   -1791.7994    19.548815   -1339.0822    6142.8621    20.557103    17.802974    16.784805    10.278552    10.278552    5.9343246 
   13400    307.75542   -1792.5799    20.327841   -1463.8433    6141.2506    20.555306    17.801417    16.783337    10.277653    10.277653    5.9338056 
   13500    298.78855   -1791.9848    19.735562    -559.4268    6138.1673    20.551865    17.798437    16.780528    10.275932    10.275932    5.9328124 
   13600    300.38511   -1792.0869    19.841017   -997.48775    6140.8497    20.554858     17.80103    16.782972    10.277429    10.277429    5.9336765 
   13700    285.87624   -1791.1313    18.882679    590.41311    6136.0718    20.549526    17.796412    16.778618    10.274763    10.274763    5.9321372 
   13800    292.36462   -1791.5589    19.311248    932.46022    6133.3353    20.546471    17.793766    16.776123    10.273235    10.273235    5.9312552 
   13900    306.92642   -1792.5191    20.273083    472.02577    6132.1955    20.545198    17.792663    16.775084    10.272599    10.272599    5.9308878 
   14000    283.60703   -1790.9788    18.732793     1946.212    6130.0719    20.542826    17.790609    16.773147    10.271413    10.271413    5.9302031 
   14100    298.44656   -1791.9598    19.712973    726.88106    6133.1033    20.546212    17.793541    16.775912    10.273106    10.273106    5.9311804 
   14200    301.64482   -1792.1741    19.924224   -433.92618    6136.7696    20.550305    17.797086    16.779254    10.275152    10.275152    5.9323621 
   14300    294.89368   -1791.7265    19.478298   -179.73062    6138.0335    20.551716    17.798308    16.780406    10.275858    10.275858    5.9327693 
   14400     288.1285   -1791.2812    19.031445   -249.99837    6140.0962    20.554018    17.800301    16.782285    10.277009    10.277009    5.9334338 
   14500    288.15669   -1791.2835    19.033307   -69.482988     6138.435    20.552164    17.798696    16.780771    10.276082    10.276082    5.9328987 
   14600    296.48339   -1791.8343    19.583301     245.7945    6135.5829     20.54898    17.795939    16.778172     10.27449     10.27449    5.9319796 
   14700    291.72812   -1791.5171    19.269206    882.41598    6133.8897     20.54709    17.794302    16.776629    10.273545    10.273545    5.9314339 
   14800    295.73227   -1791.7841    19.533688   -567.41944    6139.4994    20.553352    17.799725    16.781741    10.276676    10.276676    5.9332415 
   14900    299.83833   -1792.0522    19.804902   -1493.8013    6142.4844    20.556682    17.802609    16.784461    10.278341    10.278341     5.934203 
   15000    299.47164   -1792.0293    19.780681   -1501.6898    6142.4129    20.556602     17.80254    16.784396    10.278301    10.278301      5.93418 
   15100    285.72749   -1791.1207    18.872854     253.1814    6137.3788    20.550985    17.797675    16.779809    10.275492    10.275492    5.9325583 
   15200     296.2199   -1791.8145    19.565898   -622.99973    6139.1785    20.552994    17.799415    16.781449    10.276497    10.276497    5.9331382 
   15300    303.36698   -1792.2858    20.037976   -1399.8627    6141.5107    20.555596    17.801668    16.783574    10.277798    10.277798    5.9338894 
   15400    293.58419    -1791.639    19.391804   -5.9709858    6136.7999    20.550339    17.797115    16.779281    10.275169    10.275169    5.9323718 
   15500    301.18707   -1792.1412    19.893989     168.0881    6134.0226    20.547238     17.79443     16.77675    10.273619    10.273619    5.9314768 
   15600    302.85225   -1792.2485    20.003977    611.11044    6132.1719    20.545172     17.79264    16.775062    10.272586    10.272586    5.9308802 
   15700    294.85488   -1791.7199    19.475735    126.15987    6136.4555    20.549954    17.796783    16.778967    10.274977    10.274977    5.9322608 
   15800    298.25697   -1791.9438     19.70045   -318.67188    6138.2676    20.551977    17.798534    16.780619    10.275988    10.275988    5.9328447 
   15900     307.2402   -1792.5331    20.293809   -148.74988    6135.5484    20.548942    17.795906    16.778141    10.274471    10.274471    5.9319685 
   16000    293.90202   -1791.6507    19.412797    710.20624    6133.7389    20.546921    17.794156    16.776491    10.273461    10.273461    5.9313853 
   16100    295.19271   -1791.7352     19.49805    791.72056    6133.2206    20.546343    17.793655    16.776019    10.273171    10.273171    5.9312183 
   16200    303.05133   -1792.2514    20.017126    307.94822     6134.239     20.54748     17.79464    16.776947     10.27374     10.27374    5.9315465 
   16300    294.71472   -1791.6964    19.466477    657.32734    6134.0885    20.547312    17.794494     16.77681    10.273656    10.273656     5.931498 
   16400    293.05471   -1791.5838    19.356831    1158.7064    6132.3907    20.545416    17.792852    16.775262    10.272708    10.272708    5.9309507 
   16500    307.82012   -1792.5578    20.332114    -92.23028     6134.551    20.547828    17.794941    16.777231    10.273914    10.273914    5.9316471 
   16600    301.23307   -1792.1204    19.897027   -292.09707    6137.3503    20.550953    17.797648    16.779783    10.275477    10.275477    5.9325492 
   16700    296.23467   -1791.7899    19.566873   -656.89696    6140.2227    20.554159    17.800424      16.7824    10.277079    10.277079    5.9334745 
   16800    296.57907   -1791.8152    19.589621   -1067.8395    6141.9749    20.556114    17.802117    16.783997    10.278057    10.278057    5.9340389 
   16900     299.2048   -1791.9949    19.763056   -554.42121    6138.8167     20.55259    17.799065    16.781119    10.276295    10.276295    5.9330216 
   17000    299.20367   -1791.9962    19.762981    499.77154    6133.7726    20.546959    17.794189    16.776522     10.27348     10.27348    5.9313962 
   17100    304.35093   -1792.3354    20.102968    956.96585    6131.2166    20.544105    17.791716    16.774191    10.272052    10.272052    5.9305722 
   17200    295.28368   -1791.7369    19.504058    1482.8253    6130.1192    20.542879    17.790655     16.77319    10.271439    10.271439    5.9302183 
   17300    304.34157   -1792.3369    20.102349    760.34403    6131.8218    20.544781    17.792302    16.774743     10.27239     10.27239    5.9307673 
   17400     304.9153   -1792.3793    20.140245   -706.75749    6137.6286    20.551264    17.797917    16.780037    10.275632    10.275632    5.9326389 
   17500    291.38519   -1791.4774    19.246556   -112.72374    6138.2941    20.552007     17.79856    16.780643    10.276003    10.276003    5.9328533 
   17600    289.13941   -1791.3266    19.098217    187.27343    6137.4338    20.551046    17.797728    16.779859    10.275523    10.275523    5.9325761 
   17700    310.87076   -1792.7627    20.533615   -843.62208    6137.5207    20.551143    17.797812    16.779938    10.275572    10.275572    5.9326041 
   17800    307.50518   -1792.5391    20.311312   -180.15354     6135.132    20.548477    17.795503    16.777761    10.274238    10.274238    5.9318343 
   17900    305.50811   -1792.4076    20.179401   -101.65828    6135.4146    20.548792    17.795776    16.778019    10.274396    10.274396    5.9319254 
   18000    303.03059   -1792.2486    20.015756    696.07107     6132.164    20.545163    17.792633    16.775055    10.272581    10.272581    5.9308776 
   18100     291.7452   -1791.5004    19.270335    1915.4894    6129.7062    20.542418    17.790255    16.772814    10.271209    10.271209    5.9300851 
   18200    304.16068    -1792.324    20.090401    673.96098    6132.1682    20.545167    17.792637    16.775059    10.272584    10.272584     5.930879 
   18300    315.23939   -1793.0556    20.822172   -699.16874    6136.9198    20.550473    17.797231    16.779391    10.275236    10.275236    5.9324105 
   18400    309.96126   -1792.7083    20.473541   -710.82991    6138.2498    20.551957    17.798517    16.780603    10.275979    10.275979     5.932839 
   18500    291.10298   -1791.4647    19.227915    285.58317    6136.8396    20.550383    17.797154    16.779318    10.275192    10.275192    5.9323846 
   18600    302.49806   -1792.2231    19.980582   -1305.7777    6141.4431     20.55552    17.801603    16.783512     10.27776     10.27776    5.9338676 
   18700    291.87428   -1791.5259    19.278861   -1091.1781     6142.514    20.556715    17.802638    16.784488    10.278358    10.278358    5.9342125 
   18800    297.87607   -1791.9245    19.675291   -1348.1567     6142.985    20.557241    17.803093    16.784917     10.27862     10.27862    5.9343642 
   18900    303.06965   -1792.2715    20.018336   -875.52596    6140.1008    20.554023    17.800306    16.782289    10.277011    10.277011    5.9334353 
   19000    298.31916   -1791.9628    19.704557    252.48281     6135.595    20.548994    17.795951    16.778183    10.274497    10.274497    5.9319836 
   19100    307.13663   -1792.5454    20.286968     780.7136    6131.4184     20.54433    17.791912    16.774375    10.272165    10.272165    5.9306372 
   19200    298.49655   -1791.9738    19.716274    1599.0263    6128.7333    20.541331    17.789314    16.771926    10.270665    10.270665    5.9297714 
   19300     284.1609   -1791.0254    18.769377    2282.2075     6127.977    20.540486    17.788582    16.771236    10.270243    10.270243    5.9295275 
   19400     298.0351   -1791.9391    19.685795    521.69401    6134.3844    20.547642     17.79478     16.77708    10.273821    10.273821    5.9315934 
   19500      297.298   -1791.8928    19.637108   -582.93734    6139.3446    20.553179    17.799575      16.7816    10.276589    10.276589    5.9331917 
   19600    311.03153   -1792.7929    20.544234   -1862.0839    6142.5838    20.556793    17.802705    16.784551    10.278396    10.278396     5.934235 
   19700     305.2428   -1792.4081    20.161877   -1129.0964     6140.076    20.553995    17.800282    16.782267    10.276998    10.276998    5.9334273 
   19800    302.00938   -1792.1927    19.948304   -620.75293    6138.5105    20.552248    17.798769     16.78084    10.276124    10.276124     5.932923 
   19900    310.60163   -1792.7597    20.515839    -756.6898    6138.0704    20.551757    17.798344    16.780439    10.275878    10.275878    5.9327812 
   20000    305.92493   -1792.4542    20.206933    249.00199    6134.3303    20.547582    17.794728     16.77703    10.273791    10.273791    5.9315759 
   20100    303.30372   -1792.2872    20.033797    900.96992    6131.5198    20.544443     17.79201    16.774468    10.272222    10.272222    5.9306699 
   20200    301.85761   -1792.1931    19.938279    1891.4839    6127.6361    20.540105    17.788253    16.770925    10.270052    10.270052    5.9294175 
   20300    305.16544   -1792.4069    20.156767    1552.5651    6128.7214    20.541317    17.789303    16.771915    10.270659    10.270659    5.9297676 
   20400    305.15127   -1792.4056    20.155832    2180.2506    6125.3419    20.537541    17.786032    16.768832    10.268771    10.268771    5.9286774 
   20500    305.46063   -1792.4198    20.176265    2240.1735    6124.3495    20.536432    17.785072    16.767926    10.268216    10.268216    5.9283572 
   20600     294.5044   -1791.6962    19.452585    2602.1182    6125.2309    20.537417    17.785925    16.768731    10.268708    10.268708    5.9286416 
   20700    297.70121   -1791.9142    19.663741    1985.0942    6127.8069    20.540296    17.788418    16.771081    10.270148    10.270148    5.9294726 
   20800     287.1784   -1791.2221    18.968689    1767.4184    6130.2859    20.543065    17.790816    16.773342    10.271533    10.271533    5.9302721 
   20900    297.92898   -1791.9304    19.678785    565.64703    6134.3987    20.547658    17.794794    16.777093    10.273829    10.273829     5.931598 
   21000    295.22269   -1791.7526     19.50003   -262.96986    6138.3394    20.552057    17.798604    16.780684    10.276029    10.276029    5.9328679 
   21100    297.44777   -1791.8945       19.647   -771.47471     6139.706    20.553582    17.799924     16.78193    10.276791    10.276791    5.9333081 
   21200    312.34845   -1792.8778    20.631219   -1520.7058    6140.5021    20.554471    17.800694    16.782655    10.277235    10.277235    5.9335646 
   21300    286.98421   -1791.2007    18.955862    405.64218    6136.7078    20.550236    17.797026    16.779197    10.275118    10.275118    5.9323421 
   21400    286.10033   -1791.1432     18.89748     1072.951    6133.9105    20.547113    17.794322    16.776648    10.273557    10.273557    5.9314406 
   21500     300.7548   -1792.1105    19.865436    327.99176    6134.9171    20.548237    17.795295    16.777565    10.274118    10.274118    5.9317651 
   21600    291.71918   -1791.5151    19.268616    606.24609    6135.1512    20.548498    17.795522    16.777779    10.274249    10.274249    5.9318405 
   21700    296.50819   -1791.8319     19.58494   -553.95527    6140.2054    20.554139    17.800407    16.782385     10.27707     10.27707     5.933469 
   21800      299.568   -1792.0348    19.787046    -1201.936    6142.0185    20.556162    17.802159    16.784036    10.278081    10.278081     5.934053 
   21900    307.18339   -1792.5386    20.290057   -1611.9659    6142.5617    20.556768    17.802684    16.784531    10.278384    10.278384    5.9342279 
   22000    291.11477   -1791.4803    19.228694   -357.31311    6139.3159    20.553147    17.799547    16.781574    10.276573    10.276573    5.9331824 
   22100    293.83086   -1791.6598    19.408097   -564.74699    6140.3269    20.554275    17.800524    16.782495    10.277138    10.277138    5.9335081 
   22200    306.88848    -1792.524    20.270578   -720.40844    6138.7147    20.552476    17.798966    16.781026    10.276238    10.276238    5.9329888 
   22300    311.50758   -1792.8372    20.575678   -258.50304    6135.5932    20.548992    17.795949    16.778181    10.274496    10.274496     5.931983 
   22400    304.79908   -1792.3951    20.132569     1641.941    6128.6268    20.541212    17.789211    16.771829    10.270606    10.270606    5.9297371 
   22500    311.35936   -1792.8299    20.565888    1920.5591    6125.8335     20.53809    17.786508    16.769281    10.269045    10.269045     5.928836 
   22600    318.77465    -1793.321    21.055682    2241.1034    6122.4403    20.534298    17.783223    16.766184    10.267149    10.267149    5.9277411 
   22700    291.90931   -1791.5502    19.281174     3512.131     6122.148    20.533971     17.78294    16.765917    10.266985    10.266985    5.9276468 
   22800    292.68668   -1791.6112    19.332521    2825.1036     6124.468    20.536564    17.785186    16.768035    10.268282    10.268282    5.9283955 
   22900    302.07819   -1792.2433    19.952849    861.62798    6131.7711    20.544724    17.792253    16.774697    10.272362    10.272362     5.930751 
   23000    306.04308   -1792.5064    20.214738   -1586.6375    6142.3649    20.556549    17.802494    16.784352    10.278274    10.278274    5.9341645 
   23100    301.28434    -1792.186    19.900413   -2700.5908    6148.2678    20.563132    17.808194    16.789727    10.281566    10.281566    5.9360648 
   23200    294.44052   -1791.7274    19.448366    -1926.671    6145.9719    20.560572    17.805978    16.787637    10.280286    10.280286    5.9353259 
   23300    296.30307   -1791.8494    19.571391   -1808.4368    6145.2661    20.559785    17.805296    16.786994    10.279892    10.279892    5.9350986 
   23400    303.40431   -1792.3162    20.040441    -2224.035    6145.9672    20.560567    17.805973    16.787632    10.280283    10.280283    5.9353243 
   23500    294.99828   -1791.7621    19.485207   -1333.3806    6143.0248    20.557285    17.803131    16.784953    10.278642    10.278642     5.934377 
   23600    306.85325   -1792.5442    20.268251    -689.7116    6137.7033    20.551347    17.797989    16.780105    10.275674    10.275674    5.9326629 
   23700    294.71145   -1791.7362    19.466262    1174.4702     6131.338     20.54424    17.791834    16.774302     10.27212     10.27212    5.9306113 
   23800    293.75463   -1791.6665    19.403061    2364.5119    6126.6685    20.539024    17.787316    16.770042    10.269512    10.269512    5.9291054 
   23900    290.56412   -1791.4555    19.192322    2486.6632    6126.7767    20.539144    17.787421    16.770141    10.269572    10.269572    5.9291403 
   24000    302.49811   -1792.2529    19.980585    818.81666    6131.7671    20.544719    17.792249    16.774693     10.27236     10.27236    5.9307497 
   24100    294.78004   -1791.7366    19.470792   -279.85241    6138.3637    20.552084    17.798627    16.780707    10.276042    10.276042    5.9328757 
   24200    300.31597   -1792.1014    19.836451   -1696.1233    6144.1376    20.558526    17.804206    16.785966    10.279263    10.279263    5.9347353 
   24300    296.97811   -1791.8786    19.615978   -2115.9539    6146.4233    20.561075    17.806413    16.788048    10.280538    10.280538    5.9354712 
   24400    291.87749   -1791.5373    19.279073   -1736.2907    6146.3487    20.560992    17.806341     16.78798    10.280496    10.280496    5.9354471 
   24500    300.71759   -1792.1262    19.862978   -2017.2313    6145.8967    20.560488    17.805905    16.787568    10.280244    10.280244    5.9353016 
   24600    304.88649   -1792.4085    20.138342   -1514.0551    6142.9246    20.557173    17.803034    16.784862    10.278587    10.278587    5.9343447 
   24700    288.53798   -1791.3248    19.058492    493.96557    6136.0596    20.549512      17.7964    16.778607    10.274756    10.274756    5.9321333 
   24800    295.39467   -1791.7731    19.511389    950.13954    6132.7629    20.545832    17.793212    16.775601    10.272916    10.272916    5.9310707 
   24900    303.14211   -1792.2783    20.023123    978.11316    6131.1583     20.54404     17.79166    16.774138     10.27202     10.27202    5.9305534 
   25000    281.80636   -1790.8654    18.613855    2471.5296    6129.0405    20.541674    17.789611    16.772206    10.270837    10.270837    5.9298705 
   25100    309.23847   -1792.6768    20.425799    368.54569    6132.6506    20.545706    17.793104    16.775499    10.272853    10.272853    5.9310345 
   25200    312.30807   -1792.8795    20.628552   -323.08659     6135.705    20.549117    17.796057    16.778283    10.274558    10.274558     5.932019 
   25300    294.82254   -1791.7204    19.473599    547.39908    6135.4538    20.548836    17.795814    16.778054    10.274418    10.274418     5.931938 
   25400    312.13235    -1792.868    20.616946    -875.6472    6138.3014    20.552015    17.798567     16.78065    10.276007    10.276007    5.9328556 
   25500    297.94699   -1791.9305    19.679975   -8.8802467    6137.1691    20.550751    17.797472    16.779618    10.275375    10.275375    5.9324908 
   25600    302.85488   -1792.2574     20.00415    -223.1267    6137.2895    20.550885    17.797589    16.779728    10.275443    10.275443    5.9325296 
   25700    300.33625   -1792.0917     19.83779    195.41251    6135.8066     20.54923    17.796155    16.778376    10.274615    10.274615    5.9320517 
   25800    301.82325   -1792.1885     19.93601    1057.1903    6130.6611    20.543484    17.791179    16.773685    10.271742    10.271742    5.9303931 
   25900    293.54754   -1791.6426    19.389382    1233.1603    6132.2474    20.545256    17.792714    16.775131    10.272628    10.272628    5.9309045 
   26000    316.01729    -1793.127    20.873553    -600.3813    6135.8633    20.549293     17.79621    16.778428    10.274647    10.274647      5.93207 
   26100    300.59489   -1792.1088    19.854874    176.15997    6135.3376    20.548706    17.795702    16.777948    10.274353    10.274353    5.9319006 
   26200    302.70512   -1792.2478    19.994259    373.46408    6134.6531    20.547942     17.79504    16.777325    10.273971    10.273971      5.93168 
   26300    305.43293   -1792.4318    20.174436    641.73511    6132.5146    20.545554    17.792972    16.775375    10.272777    10.272777    5.9309907 
   26400    305.36004   -1792.4257    20.169621    771.52419     6131.277    20.544172    17.791775    16.774246    10.272086    10.272086    5.9305916 
   26500    303.71642   -1792.3135    20.061057    448.27527    6134.2113    20.547449    17.794613    16.776922    10.273724    10.273724    5.9315376 
   26600    294.71603   -1791.7181    19.466564    953.85069    6133.2732    20.546401    17.793706    16.776067    10.273201    10.273201    5.9312352 
   26700    302.17451   -1792.2111    19.959211   -103.53597    6136.0009    20.549447    17.796343    16.778553    10.274723    10.274723    5.9321144 
   26800    289.13606   -1791.3487    19.097996    728.01193    6135.1495    20.548496     17.79552    16.777777    10.274248    10.274248      5.93184 
   26900    303.55328   -1792.3007    20.050281   -268.64011    6136.0177    20.549466    17.796359    16.778568    10.274733    10.274733    5.9321198 
   27000    308.28163   -1792.6121    20.362598    447.27579    6133.0259    20.546125    17.793466    16.775841    10.273063    10.273063    5.9311555 
   27100    292.65067   -1791.5828    19.330143    2046.6085    6128.2961    20.540842    17.788891    16.771527    10.270421    10.270421    5.9296304 
   27200    307.19039   -1792.5419    20.290519    1053.4736    6129.8135    20.542537    17.790359    16.772912    10.271269    10.271269    5.9301198 
   27300    298.09246   -1791.9454    19.689584    1318.5555    6130.5248    20.543332    17.791047     16.77356    10.271666    10.271666    5.9303491 
   27400    296.68907   -1791.8542    19.596887    762.67163    6132.9507    20.546041    17.793394    16.775772    10.273021    10.273021    5.9311312 
   27500    299.26495    -1792.022    19.767029   -510.65083    6138.1506    20.551846    17.798421    16.780512    10.275923    10.275923     5.932807 
   27600    300.13627   -1792.0803    19.824581   -1563.9762    6142.8246    20.557062    17.802938     16.78477    10.278531    10.278531    5.9343125 
   27700    314.34917   -1793.0175     20.76337    -2392.446    6143.7865    20.558135    17.803867    16.785647    10.279067    10.279067    5.9346223 
   27800    301.21625   -1792.1513    19.895916    -1005.155    6140.5675    20.554544    17.800757    16.782715    10.277272    10.277272    5.9335856 
   27900    308.17392   -1792.6069    20.355484   -855.69619    6139.3258    20.553158    17.799557    16.781583    10.276579    10.276579    5.9331856 
   28000    283.95551   -1791.0134    18.755811    1183.7972    6133.4924    20.546646    17.793918    16.776266    10.273323    10.273323    5.9313059 
   28100    291.53169   -1791.5112    19.256232    1161.0418    6132.9665    20.546059    17.793409    16.775787    10.273029    10.273029    5.9311363 
   28200    291.55935   -1791.5129    19.258059     1466.846    6131.7134     20.54466    17.792197    16.774644     10.27233     10.27233    5.9307324 
   28300    310.27626   -1792.7479    20.494347    738.43969    6130.7864    20.543624      17.7913    16.773799    10.271812    10.271812    5.9304335 
   28400    296.66071    -1791.852    19.595014    1384.7112    6129.7842    20.542505    17.790331    16.772885    10.271252    10.271252    5.9301103 
   28500    302.23822   -1792.2203    19.963419      839.663    6132.1611    20.545159     17.79263    16.775052     10.27258     10.27258    5.9308767 
   28600    295.91075   -1791.8068    19.545477    796.05778    6132.6018    20.545652    17.793056    16.775454    10.272826    10.272826    5.9310188 
   28700     297.3194   -1791.9021    19.638521    -429.7015    6139.3655    20.553202    17.799595    16.781619    10.276601    10.276601    5.9331984 
   28800    315.45507   -1793.0981    20.836418   -2833.3507    6146.6629    20.561342    17.806645    16.788266    10.280671    10.280671    5.9355483 
   28900    297.19959   -1791.8914    19.630608   -1912.1272    6146.1998    20.560826    17.806198    16.787844    10.280413    10.280413    5.9353992 
   29000    290.50732   -1791.4501     19.18857   -769.73768    6141.8298    20.555952    17.801976    16.783864    10.277976    10.277976    5.9339922 
   29100    312.32798   -1792.8953    20.629867   -1610.9247     6141.365    20.555433    17.801527    16.783441    10.277717    10.277717    5.9338425 
   29200    284.88294   -1791.0784    18.817069    1016.8942     6134.739    20.548038    17.795123    16.777403    10.274019    10.274019    5.9317077 
   29300    297.82154   -1791.9318    19.671689    624.30602    6133.9274    20.547132    17.794338    16.776663    10.273566    10.273566    5.9314461 
   29400    296.12617   -1791.8171    19.559706    1398.9238    6130.3422    20.543128    17.790871    16.773394    10.271564    10.271564    5.9302902 
   29500    302.64937   -1792.2471    19.990576    368.65199    6134.2044    20.547441    17.794606    16.776915    10.273721    10.273721    5.9315354 
   29600     302.5889    -1792.233    19.986582    -108.1126    6136.7681    20.550303    17.797085    16.779252    10.275152    10.275152    5.9323616 
   29700    300.48189   -1792.0904     19.84741   -23.783978    6136.6829    20.550208    17.797002    16.779175    10.275104    10.275104    5.9323341 
   29800    305.11703   -1792.3958     20.15357   -837.12587    6139.7549    20.553637    17.799972    16.781974    10.276818    10.276818    5.9333239 
   29900    304.10933    -1792.327     20.08701   -785.63763    6139.5258    20.553381     17.79975    16.781765    10.276691    10.276691    5.9332501 
   30000    308.95626   -1792.6428    20.407159    -564.0329    6137.5001     20.55112    17.797792    16.779919     10.27556     10.27556    5.9325974 
   30100    303.80689   -1792.3009    20.067033     88.31706    6135.6497    20.549055    17.796004    16.778233    10.274527    10.274527    5.9320012 
   30200    301.41978   -1792.1445    19.909359   -63.672599    6136.2639     20.54974    17.796597    16.778793     10.27487     10.27487    5.9321991 
   30300    303.91054   -1792.3109    20.073879    2.5707729    6135.0607    20.548397    17.795434    16.777696    10.274199    10.274199    5.9318114 
   30400    295.32568   -1791.7448    19.506832    342.59227    6135.6957    20.549106    17.796048    16.778275    10.274553    10.274553     5.932016 
   30500     307.3151   -1792.5411    20.298757   -859.68338    6138.4378    20.552167    17.798699    16.780774    10.276083    10.276083    5.9328996 
   30600    287.29707   -1791.2237    18.976527    172.32462    6138.0117    20.551691    17.798287    16.780386    10.275846    10.275846    5.9327623 
   30700    293.98513   -1791.6668    19.418286   -476.16573    6139.8601    20.553754    17.800073     16.78207    10.276877    10.276877    5.9333577 
   30800    305.37983   -1792.4229    20.170928   -1437.7247     6142.128    20.556285    17.802265    16.784136    10.278142    10.278142    5.9340882 
   30900    304.84615   -1792.3901    20.135678   -1166.9305    6140.8148    20.554819    17.800996     16.78294     10.27741     10.27741    5.9336653 
   31000    298.46829   -1791.9692    19.714408   -344.32786    6138.2286    20.551934    17.798497    16.780583    10.275967    10.275967    5.9328322 
   31100    308.71705   -1792.6468    20.391358   -219.05326    6135.0922    20.548432    17.795465    16.777725    10.274216    10.274216    5.9318215 
   31200    315.81746   -1793.1128    20.860354   -471.99866    6135.3541    20.548725    17.795718    16.777964    10.274362    10.274362    5.9319059 
   31300    293.26358   -1791.6211    19.370627    1532.2289    6130.7859    20.543624      17.7913    16.773798    10.271812    10.271812    5.9304333 
   31400    295.85031   -1791.7939    19.541485    1228.4979     6131.494    20.544415    17.791985    16.774444    10.272207    10.272207    5.9306616 
   31500     310.6261   -1792.7689    20.517455    1059.2868    6129.2113    20.541865    17.789777    16.772362    10.270932    10.270932    5.9299255 
   31600     285.8399   -1791.1343    18.880278    3180.7535    6124.6344     20.53675    17.785347    16.768186    10.268375    10.268375    5.9284491 
   31700    302.28574    -1792.221    19.966558     2126.158    6126.5022    20.538838    17.787155    16.769891    10.269419    10.269419    5.9290518 
   31800     294.0753   -1791.6905    19.424242    1578.4133    6130.9504    20.543807    17.791459    16.773948    10.271904    10.271904    5.9304864 
   31900    300.54743   -1792.1135    19.851739    458.04479    6133.9304    20.547135    17.794341    16.776666    10.273568    10.273568     5.931447 
   32000    301.65155   -1792.1844    19.924668   -390.74693    6137.7333    20.551381    17.798018    16.780132     10.27569     10.27569    5.9326726 
   32100    301.38031   -1792.1647    19.906753   -1409.2097    6142.5079    20.556708    17.802632    16.784482    10.278354    10.278354    5.9342105 
   32200    302.37959   -1792.2274    19.972757   -1588.9486    6143.4124    20.557717    17.803505    16.785306    10.278859    10.278859    5.9345018 
   32300    293.39435   -1791.6344    19.379265   -500.68574    6140.1552    20.554083    17.800358    16.782339    10.277042    10.277042    5.9334528 
   32400     303.1421   -1792.2782    20.023122   -891.77834    6139.2392    20.553061    17.799473    16.781504    10.276531    10.276531    5.9331577 
   32500    291.31221   -1791.4971    19.241735    248.18734    6136.8482    20.550393    17.797162    16.779325    10.275196    10.275196    5.9323874 
   32600    314.74828   -1793.0447    20.789733    -847.9357    6137.8113    20.551468    17.798093    16.780203    10.275734    10.275734    5.9326977 
   32700    300.22037   -1792.0832    19.830136     985.1019    6131.6016    20.544535    17.792089    16.774542    10.272267    10.272267    5.9306963 
   32800    302.07542   -1792.2051    19.952666    2122.1911    6126.1314    20.538423    17.786796    16.769552    10.269212    10.269212    5.9289321 
   32900     297.5438   -1791.9153    19.653343    2157.0985    6126.8078    20.539179    17.787451     16.77017     10.26959     10.26959    5.9291503 
   33000    293.07909   -1791.6147    19.358441    1601.5707    6130.1333    20.542895    17.790669    16.773203    10.271447    10.271447    5.9302229 
   33100    298.63192    -1791.982    19.725216     -86.4067    6137.2383    20.550828    17.797539    16.779681    10.275414    10.275414    5.9325131 
   33200     319.6071   -1793.3621    21.110667   -1706.4539    6141.4963     20.55558    17.801654    16.783561     10.27779     10.27779    5.9338848 
   33300    292.16068   -1791.5509    19.297778    116.38997    6136.9452    20.550501    17.797256    16.779414    10.275251    10.275251    5.9324186 
   33400    296.85914   -1791.8595     19.60812   -207.64963    6138.5113    20.552249     17.79877    16.780841    10.276124    10.276124    5.9329232 
   33500     290.7332    -1791.456     19.20349    151.43892    6137.4035    20.551013    17.797699    16.779831    10.275506    10.275506    5.9325663 
   33600    299.11671   -1792.0123    19.757238   -490.24135    6138.3871     20.55211     17.79865    16.780728    10.276055    10.276055    5.9328832 
   33700    301.19239   -1792.1493     19.89434   -219.40892    6137.3146    20.550913    17.797613    16.779751    10.275457    10.275457    5.9325377 
   33800    292.18056   -1791.5549    19.299091    970.51319    6132.8898    20.545973    17.793335    16.775717    10.272987    10.272987    5.9311116 
   33900    311.35408   -1792.8242    20.565539   -464.71595    6135.8125    20.549237    17.796161    16.778381    10.274618    10.274618    5.9320537 
   34000    292.61944   -1791.5879     19.32808    373.53779    6135.7539    20.549171    17.796104    16.778328    10.274586    10.274586    5.9320348 
   34100    300.14592   -1792.0862    19.825219    -480.0556    6138.8127    20.552585    17.799061    16.781116    10.276293    10.276293    5.9330203 
   34200    306.90927   -1792.5329    20.271951   -857.64465     6138.687    20.552445    17.798939    16.781001    10.276222    10.276222    5.9329798 
   34300    298.07304   -1791.9524    19.688301   -280.17523    6137.7988    20.551454    17.798081    16.780192    10.275727    10.275727    5.9326937 
   34400    304.39554   -1792.3722    20.105914   -872.43572    6138.7982    20.552569    17.799047    16.781102    10.276285    10.276285    5.9330157 
   34500    306.16085   -1792.4873    20.222516   -693.34217    6138.0469    20.551731    17.798321    16.780418    10.275865    10.275865    5.9327736 
   34600    292.15081   -1791.5643    19.297126    815.12794    6133.8912    20.547092    17.794303     16.77663    10.273546    10.273546    5.9314344 
   34700    298.31898   -1791.9681    19.704545    1593.5562    6128.7397    20.541338     17.78932    16.771932    10.270669    10.270669    5.9297734 
   34800    291.38603   -1791.5118    19.246611     1521.458    6130.7466     20.54358    17.791262    16.773763     10.27179     10.27179    5.9304206 
   34900    303.68266   -1792.3296    20.058827   -489.85075    6137.2957    20.550892    17.797595    16.779733    10.275446    10.275446    5.9325316 
   35000    294.11154   -1791.6871    19.426636   -800.50521    6140.3436    20.554294     17.80054    16.782511    10.277147    10.277147    5.9335135 
   35100    293.32659   -1791.6281    19.374789   -912.86002    6141.2115    20.555262    17.801379    16.783301    10.277631    10.277631     5.933793 
   35200    305.83638   -1792.4522    20.201085   -1656.8989    6142.3691    20.556553    17.802497    16.784356    10.278277    10.278277    5.9341658 
   35300    298.11495   -1791.9374    19.691069   -789.10163       6140.8    20.554803    17.800982    16.782926    10.277401    10.277401    5.9336605 
   35400    289.78833   -1791.3893     19.14108   -743.43114    6142.0799    20.556231    17.802218    16.784092    10.278115    10.278115    5.9340727 
   35500    304.02389   -1792.3288    20.081366   -1730.2212    6143.7963    20.558145    17.803876    16.785655    10.279073    10.279073    5.9346254 
   35600    291.93456   -1791.5323    19.282843   -576.67232    6140.8987    20.554913    17.801077    16.783016    10.277456    10.277456    5.9336923 
   35700    306.79517   -1792.5138    20.264414    -774.8399    6138.9826    20.552775    17.799225     16.78127    10.276387    10.276387    5.9330751 
   35800    290.84217   -1791.4605    19.210688    268.95596    6137.1585    20.550739    17.797462    16.779608     10.27537     10.27537    5.9324874 
   35900    307.79576   -1792.5804    20.330505   -420.45562    6136.7449    20.550277    17.797062    16.779231    10.275139    10.275139    5.9323541 
   36000     289.2825   -1791.3572    19.107668    1266.9429    6132.2573    20.545267    17.792723     16.77514    10.272634    10.272634    5.9309077 
   36100    300.72394   -1792.1141    19.863398   -197.28684    6136.9335    20.550488    17.797245    16.779403    10.275244    10.275244    5.9324149 
   36200    298.83642   -1791.9892    19.738723     145.7633    6135.5385    20.548931    17.795896    16.778132    10.274465    10.274465    5.9319653 
   36300    301.65876    -1792.178    19.925145   -431.32867    6137.4458     20.55106     17.79774     16.77987     10.27553     10.27553    5.9325799 
   36400    295.11525   -1791.7395    19.492933    559.58485    6134.5128    20.547786    17.794904    16.777197    10.273893    10.273893    5.9316348 
   36500    298.58267   -1791.9638    19.721963   -164.39113    6136.8132    20.550354    17.797128    16.779293    10.275177    10.275177    5.9323761 
   36600    297.43754   -1791.8839    19.646325    -231.5029    6137.3771    20.550983    17.797673    16.779807    10.275492    10.275492    5.9325578 
   36700    317.12488   -1793.1817    20.946712   -1464.1428    6139.6439    20.553513    17.799864    16.781873    10.276756    10.276756    5.9332881 
   36800    301.65101   -1792.1582    19.924633   -474.62467    6137.2926    20.550889    17.797592     16.77973    10.275444    10.275444    5.9325306 
   36900    298.86296   -1791.9724    19.740476   -520.89414    6138.4408     20.55217    17.798702    16.780777    10.276085    10.276085    5.9329005 
   37000     301.2492   -1792.1252    19.898092   -186.12073    6137.2121    20.550799    17.797514    16.779657    10.275399    10.275399    5.9325047 
   37100    307.02286   -1792.5067    20.279454   -256.20506    6136.1256    20.549586    17.796464    16.778667    10.274793    10.274793    5.9321546 
   37200    330.81374   -1794.0791    21.850887   -1013.7228    6135.6083    20.549009    17.795963    16.778195    10.274504    10.274504    5.9319878 
   37300     281.3255   -1790.8149    18.582094     2186.914    6130.0487      20.5428    17.790587    16.773126      10.2714      10.2714    5.9301956 
   37400    302.82208   -1792.2351    20.001984    543.83441     6133.395    20.546537    17.793823    16.776178    10.273269    10.273269    5.9312745 
   37500    294.21861   -1791.6682    19.433708    816.22155    6133.0502    20.546152     17.79349    16.775863    10.273076    10.273076    5.9311633 
   37600     284.2194   -1791.0091    18.773241    887.09617    6134.4353    20.547699    17.794829    16.777126     10.27385     10.27385    5.9316098 
   37700    307.78956    -1792.566    20.330095   -1385.1315    6140.4398    20.554401    17.800633    16.782598      10.2772      10.2772    5.9335445 
   37800    309.55301   -1792.6846    20.446575   -1941.5897    6143.1724     20.55745    17.803274    16.785087    10.278725    10.278725    5.9344245 
   37900    308.78862   -1792.6363    20.396085   -1657.8392    6142.4615    20.556657    17.802587     16.78444    10.278328    10.278328    5.9341956 
   38000    300.88115   -1792.1175    19.873782   -743.40072    6139.8532    20.553746    17.800067    16.782064    10.276873    10.276873    5.9333555 
   38100    301.28514   -1792.1464    19.900466   -161.68297    6136.7661    20.550301    17.797083    16.779251    10.275151    10.275151    5.9323609 
   38200    302.72171   -1792.2432    19.995354    1233.2179    6130.5863    20.543401    17.791107    16.773616      10.2717      10.2717    5.9303689 
   38300    299.61648   -1792.0339    19.790248    1808.9709    6128.5575    20.541134    17.789144    16.771766    10.270567    10.270567    5.9297147 
   38400    305.88972   -1792.4477    20.204608    1510.5205    6128.3791    20.540935    17.788972    16.771603    10.270467    10.270467    5.9296572 
   38500    308.58144   -1792.6293    20.382401    1366.2302    6128.2753    20.540819    17.788871    16.771508    10.270409    10.270409    5.9296237 
   38600    310.54268   -1792.7638    20.511945    308.16523    6133.0785    20.546184    17.793517    16.775889    10.273092    10.273092    5.9311724 
   38700    305.46188   -1792.4283    20.176348    550.29282    6132.7182    20.545782    17.793169     16.77556    10.272891    10.272891    5.9310563 
   38800      290.005   -1791.4096    19.155391    980.57841    6133.0608    20.546164      17.7935    16.775873    10.273082    10.273082    5.9311667 
   38900    295.03449    -1791.742    19.487598     959.3265    6133.7875    20.546976    17.794203    16.776535    10.273488    10.273488     5.931401 
   39000    286.18008   -1791.1608    18.902748    828.44683    6134.8931     20.54821    17.795272    16.777543    10.274105    10.274105    5.9317573 
   39100    300.23014   -1792.0886    19.830781   -609.11585    6139.2154    20.553035     17.79945    16.781483    10.276517    10.276517    5.9331501 
   39200    292.88593      -1791.6    19.345682   -658.98061    6140.4841     20.55445    17.800676    16.782639    10.277225    10.277225    5.9335588 
   39300    285.15266   -1791.0881    18.834885    -810.1223    6141.8918    20.556021    17.802036    16.783921    10.278011    10.278011    5.9340121 
   39400    290.97747    -1791.471    19.219625   -1049.0807    6142.5708    20.556778    17.802692    16.784539    10.278389    10.278389    5.9342308 
   39500    287.07476   -1791.2131    18.961843   -688.02104    6141.8424    20.555966    17.801989    16.783876    10.277983    10.277983    5.9339962 
   39600    305.16241   -1792.4093    20.156567   -1414.2726    6141.5626    20.555654    17.801718    16.783621    10.277827    10.277827    5.9339061 
   39700    295.34159   -1791.7604    19.507883    209.40376    6136.0359    20.549486    17.796377    16.778585    10.274743    10.274743    5.9321256 
   39800    292.40852    -1791.569    19.314148    888.36936    6133.8723     20.54707    17.794285    16.776613    10.273535    10.273535    5.9314283 
   39900      302.182   -1792.2115    19.959706    582.37731    6132.8651    20.545946    17.793311    16.775694    10.272973    10.272973    5.9311036 
   40000    293.66974   -1791.6521    19.397454      170.019    6136.3678    20.549857    17.796698    16.778888    10.274928    10.274928    5.9322326 
   40100    300.58273   -1792.1062    19.854071   -997.58072    6140.7564    20.554754    17.800939    16.782887    10.277377    10.277377    5.9336465 
   40200    312.89133   -1792.9235    20.667077   -1599.2064    6140.8627    20.554873    17.801042    16.782983    10.277436    10.277436    5.9336807 
   40300    298.02691   -1791.9458    19.685254   -175.57957    6137.9083    20.551576    17.798187    16.780292    10.275788    10.275788     5.932729 
   40400    296.78767   -1791.8634      19.6034    381.56497    6134.7941      20.5481    17.795176    16.777453     10.27405     10.27405    5.9317254 
   40500    298.01011   -1791.9445    19.684144    58.289168    6135.7899    20.549211    17.796139    16.778361    10.274606    10.274606    5.9320464 
   40600    298.95849   -1792.0076    19.746787   -85.230722    6136.6446    20.550165    17.796965     16.77914    10.275083    10.275083    5.9323218 
   40700    302.54896   -1792.2448    19.983944    -362.6171    6137.0933    20.550666    17.797399    16.779549    10.275333    10.275333    5.9324664 
   40800    293.12401   -1791.6219    19.361408   -224.13071     6138.436    20.552165    17.798697    16.780772    10.276082    10.276082     5.932899 
   40900    292.43765   -1791.5774    19.316072    36.238414    6137.5815    20.551211    17.797871    16.779994    10.275606    10.275606    5.9326237 
   41000    301.20264   -1792.1555    19.895017    -314.1708     6137.351    20.550954    17.797648    16.779784    10.275477    10.275477    5.9325494 
   41100    296.51326   -1791.8487    19.585274    753.63656    6133.0746     20.54618    17.793514    16.775885     10.27309     10.27309    5.9311712 
   41200    307.68831   -1792.5851    20.323408    843.69383    6130.7064    20.543535    17.791223    16.773726    10.271767    10.271767    5.9304077 
   41300    293.38276   -1791.6424    19.378499    1067.5106    6132.0119    20.544993    17.792486    16.774916    10.272496    10.272496    5.9308286 
   41400    287.91891   -1791.2889    19.017601    1528.7937    6131.2945    20.544192    17.791792    16.774262    10.272096    10.272096    5.9305973 
   41500    294.91055   -1791.7539    19.479412   -308.65246    6138.0171    20.551697    17.798292    16.780391    10.275849    10.275849     5.932764 
   41600    299.13436   -1792.0307    19.758403   -1022.3132     6141.201     20.55525    17.801369    16.783292    10.277625    10.277625    5.9337897 
   41700    298.61026   -1791.9931    19.723785   -1595.2319    6144.0623    20.558442    17.804133    16.785898    10.279221    10.279221    5.9347111 
   41800    314.04566   -1793.0119    20.743323   -1805.5769    6141.8778    20.556005    17.802023    16.783908    10.278003    10.278003    5.9340076 
   41900    304.41279    -1792.376    20.107054   -870.03226    6139.5499    20.553408    17.799773    16.781787    10.276704    10.276704    5.9332578 
   42000    306.94779   -1792.5455    20.274495   -740.53578     6139.018    20.552814    17.799259    16.781303    10.276407    10.276407    5.9330865 
   42100    310.23061   -1792.7636    20.491332    663.31542    6131.7904    20.544746    17.792272    16.774714    10.272373    10.272373    5.9307572 
   42200     299.1286   -1792.0255    19.758023    1622.4613    6129.2977    20.541961     17.78986    16.772441    10.270981    10.270981    5.9299534 
   42300    311.38994   -1792.8341    20.567908    249.72802    6132.8588    20.545939    17.793305    16.775689    10.272969    10.272969    5.9311016 
   42400    299.32541   -1792.0353    19.771022    716.90392    6133.0968    20.546205    17.793535    16.775906    10.273102    10.273102    5.9311784 
   42500    304.59046   -1792.3822    20.118789    -457.2405    6136.9164    20.550469    17.797228    16.779388    10.275234    10.275234    5.9324094 
   42600    305.49231   -1792.4357    20.178358   -1313.7603    6141.6948    20.555801    17.801846    16.783741    10.277901    10.277901    5.9339487 
   42700     291.9335   -1791.5371    19.282772   -90.494377    6138.0482    20.551732    17.798322    16.780419    10.275866    10.275866     5.932774 
   42800    293.34285   -1791.6296    19.375862    -188.5048    6138.6207    20.552371    17.798875    16.780941    10.276186    10.276186    5.9329585 
   42900     294.1986   -1791.6857    19.432387   -486.05665    6139.3191    20.553151     17.79955    16.781577    10.276575    10.276575    5.9331835 
   43000    301.07529   -1792.1432    19.886605   -709.73581    6139.0835    20.552887    17.799323    16.781362    10.276444    10.276444    5.9331076 
   43100    298.93616    -1792.001    19.745312    366.12694    6134.6125    20.547897    17.795001    16.777288    10.273948    10.273948    5.9316669 
   43200    301.30807   -1792.1572    19.901981    605.99744    6133.6682    20.546843    17.794088    16.776427    10.273421    10.273421    5.9313625 
   43300    294.65156   -1791.7181    19.462305    1393.0639    6131.2854    20.544182    17.791783    16.774254    10.272091    10.272091    5.9305944 
   43400     310.9014   -1792.7912    20.535639    544.64326    6131.6454    20.544584    17.792131    16.774582    10.272292    10.272292    5.9307104 
   43500    300.79555   -1792.1234    19.868128    1090.5114    6131.2085    20.544096    17.791709    16.774184    10.272048    10.272048    5.9305696 
   43600    295.23273    -1791.756    19.500693    1800.7971    6129.0249    20.541656    17.789596    16.772192    10.270828    10.270828    5.9298654 
   43700    295.14978   -1791.7474    19.495214    2191.9393    6127.6088    20.540074    17.788226      16.7709    10.270037    10.270037    5.9294087 
   43800    306.18397   -1792.4749    20.224043    730.82627    6132.6163    20.545668     17.79307    16.775468    10.272834    10.272834    5.9310235 
   43900    311.21404    -1792.801     20.55629    133.24089     6133.545    20.546705    17.793968    16.776314    10.273352    10.273352    5.9313228 
   44000    303.77019   -1792.3044    20.064608    968.12505    6131.9482    20.544922    17.792424    16.774858    10.272461    10.272461     5.930808 
   44100    298.83559   -1791.9756    19.738669    950.56524     6132.367    20.545389    17.792829     16.77524    10.272695    10.272695    5.9309431 
   44200    305.51592   -1792.4146    20.179918    43.156526    6134.7643    20.548066    17.795148    16.777426    10.274033    10.274033    5.9317158 
   44300    299.04566   -1791.9868    19.752545     679.7537    6134.3216    20.547572    17.794719    16.777022    10.273786    10.273786    5.9315731 
   44400     288.8674   -1791.3199    19.080251   -32.754325    6139.2513    20.553075    17.799485    16.781515    10.276537    10.276537    5.9331616 
   44500    314.00547   -1792.9752    20.740669   -1986.9535    6143.1038    20.557373    17.803207    16.785025    10.278687    10.278687    5.9344024 
   44600    293.63877   -1791.6295    19.395409   -981.56526    6142.6585    20.556876    17.802777    16.784619    10.278438    10.278438     5.934259 
   44700    295.50242   -1791.7562    19.518506   -268.75068    6138.8397    20.552615    17.799087     16.78114    10.276308    10.276308     5.933029 
   44800    306.93087   -1792.5137    20.273377   -586.00969    6137.5247    20.551148    17.797816    16.779942    10.275574    10.275574    5.9326054 
   44900    294.79609   -1791.7184    19.471852   -10.481881    6137.2863    20.550882    17.797586    16.779725    10.275441    10.275441    5.9325286 
   45000    300.82976    -1792.118    19.870387   -117.30229     6136.731    20.550262    17.797049    16.779219    10.275131    10.275131    5.9323496 
   45100    308.47655   -1792.6256    20.375473   -561.70776    6137.2393    20.550829     17.79754    16.779682    10.275415    10.275415    5.9325134 
   45200    306.66387   -1792.5108    20.255742    489.19457    6132.6395    20.545694    17.793093    16.775489    10.272847    10.272847    5.9310309 
   45300    294.61163   -1791.7134    19.459668    1795.6284    6129.0238    20.541655    17.789595    16.772191    10.270828    10.270828    5.9298651 
   45400    288.58758   -1791.3168    19.061768    2172.1693     6128.858     20.54147    17.789435     16.77204    10.270735    10.270735    5.9298116 
   45500    305.89966   -1792.4614    20.205264    931.46044    6131.4332    20.544347    17.791926    16.774389    10.272173    10.272173     5.930642 
   45600    307.07813   -1792.5392    20.283104   -377.45968    6136.2464    20.549721     17.79658    16.778777     10.27486     10.27486    5.9321935 
   45700     306.3972   -1792.4918    20.238128   -857.23798    6139.4513    20.553298    17.799678    16.781698    10.276649    10.276649    5.9332261 
   45800    303.13332   -1792.2729    20.022542   -661.68052    6139.1308     20.55294    17.799368    16.781406     10.27647     10.27647    5.9331228 
   45900     317.0698   -1793.1922    20.943073    -1604.577    6140.2729    20.554215    17.800472    16.782446    10.277107    10.277107    5.9334907 
   46000    306.92387   -1792.5234    20.272915   -160.55998    6136.1993    20.549668    17.796535    16.778734    10.274834    10.274834    5.9321783 
   46100    299.85524   -1792.0553    19.806018     438.6852    6134.5821    20.547863    17.794971     16.77726    10.273931    10.273931    5.9316571 
   46200    299.69541   -1792.0469    19.795461     194.7855    6134.7618    20.548064    17.795145    16.777424    10.274032    10.274032     5.931715 
   46300    300.80934   -1792.1183    19.869039   -355.53075    6137.9855    20.551662    17.798262    16.780362    10.275831    10.275831    5.9327538 
   46400    303.23248   -1792.2807    20.029092    -896.0479    6139.3586    20.553195    17.799589    16.781613    10.276597    10.276597    5.9331962 
   46500    302.02704   -1792.1999     19.94947   -264.70092    6137.3621    20.550966    17.797659    16.779794    10.275483    10.275483     5.932553 
   46600    289.09082   -1791.3413    19.095008    1132.2626     6132.832    20.545909    17.793279    16.775664    10.272954    10.272954     5.931093 
   46700    320.17456   -1793.3962    21.148149   -877.46342    6136.7155    20.550245    17.797034    16.779204    10.275122    10.275122    5.9323446 
   46800    303.09925   -1792.2671    20.020292   -13.199278    6136.0824    20.549538    17.796422    16.778627    10.274769    10.274769    5.9321406 
   46900    291.88123   -1791.5262     19.27932    1139.3932    6132.0155    20.544997    17.792489     16.77492    10.272498    10.272498    5.9308297 
   47000    293.41933   -1791.6255    19.380914     1065.218    6133.0509    20.546153    17.793491    16.775864    10.273077    10.273077    5.9311635 
   47100    290.36183   -1791.4247     19.17896    447.29336    6135.2918    20.548655    17.795657    16.777907    10.274328    10.274328    5.9318858 
   47200    299.89294   -1792.0546    19.808509   -575.76517    6138.1946    20.551895    17.798464    16.780552    10.275948    10.275948    5.9328212 
   47300    297.56468   -1791.9016    19.654723   -858.14714    6140.6951    20.554686     17.80088    16.782831    10.277343    10.277343    5.9336267 
   47400    306.96225   -1792.5191     20.27545   -861.40144    6139.2025     20.55302    17.799438    16.781471     10.27651     10.27651    5.9331459 
   47500    304.43685    -1792.354    20.108643   -599.15105    6138.5528    20.552295     17.79881    16.780879    10.276148    10.276148    5.9329366 
   47600    303.64962   -1792.3039    20.056645   -1035.3282    6140.2755    20.554218    17.800475    16.782448    10.277109    10.277109    5.9334916 
   47700    288.12827     -1791.28    19.031429    245.55853    6138.0631    20.551749    17.798336    16.780433    10.275874    10.275874    5.9327788 
   47800    290.66697   -1791.4508    19.199116    482.57182    6135.6448    20.549049    17.795999    16.778229    10.274525    10.274525    5.9319996 
   47900    299.54096   -1792.0365    19.785259    408.99515    6134.6491    20.547938    17.795036    16.777321    10.273969    10.273969    5.9316787 
   48000    299.29781   -1792.0206    19.769199     292.1862      6135.35     20.54872    17.795714     16.77796     10.27436     10.27436    5.9319046 
   48100    313.55964    -1792.963    20.711221   -170.68797    6134.4724     20.54774    17.794865     16.77716     10.27387     10.27387    5.9316217 
   48200    304.41872   -1792.3571    20.107445     1368.973    6129.6299    20.542332    17.790182    16.772744    10.271166    10.271166    5.9300606 
   48300    300.92277   -1792.1292    19.876531    1170.8689    6131.0145    20.543879    17.791521    16.774007    10.271939    10.271939     5.930507 
   48400    300.85329   -1792.1252    19.871941    441.66078    6133.4842    20.546637     17.79391    16.776259    10.273319    10.273319    5.9313032 
   48500    293.66076    -1791.649    19.396861    475.68175     6135.463    20.548846    17.795823    16.778063    10.274423    10.274423     5.931941 
   48600    307.04398   -1792.5346    20.280848   -1361.2275    6140.9293    20.554947    17.801106    16.783044    10.277474    10.277474    5.9337021 
   48700    306.65562   -1792.5046    20.255197   -1837.2805    6142.9896    20.557246    17.803097    16.784921    10.278623    10.278623    5.9343656 
   48800    297.83967   -1791.9218    19.672887   -2103.2723    6145.5253    20.560074    17.805546     16.78723    10.280037    10.280037    5.9351821 
   48900    298.46435    -1791.959    19.714147   -1605.1792    6143.8349    20.558189    17.803914    16.785691    10.279094    10.279094    5.9346378 
   49000    307.64648   -1792.5681    20.320645   -1805.2035    6142.7795    20.557011    17.802894    16.784729    10.278506    10.278506     5.934298 
   49100    321.88724   -1793.5123    21.261275   -2215.3907    6142.8705    20.557113    17.802982    16.784812    10.278556    10.278556    5.9343273 
   49200    301.36233    -1792.159    19.905565   -210.75736    6137.3654     20.55097    17.797662    16.779797    10.275485    10.275485    5.9325541 
   49300     291.2984   -1791.4929    19.240823    1085.6783    6133.2008    20.546321    17.793636    16.776001     10.27316     10.27316    5.9312119 
   49400    298.19101    -1791.942    19.696093    1593.2678    6129.2288    20.541884    17.789794    16.772378    10.270942    10.270942    5.9299312 
   49500     296.8391   -1791.8478    19.606797    1273.5266    6131.2223    20.544111    17.791722    16.774196    10.272056    10.272056     5.930574 
   49600    302.07752   -1792.1928    19.952804    620.29119    6132.9189    20.546006    17.793363    16.775744    10.273003    10.273003     5.931121 
   49700    297.59207   -1791.8964    19.656532     954.7595    6132.7941    20.545866    17.793242     16.77563    10.272933    10.272933    5.9310808 
   49800    292.90688   -1791.5868    19.347066    1189.7094    6132.3674     20.54539     17.79283    16.775241    10.272695    10.272695    5.9309432 
   49900    306.81564   -1792.5044    20.265766    543.64857    6132.6715     20.54573    17.793124    16.775518    10.272865    10.272865    5.9310412 
   50000    296.82505    -1791.845    19.605869    1105.0228    6131.7521    20.544703    17.792235     16.77468    10.272351    10.272351    5.9307448 
   50100    292.26817   -1791.5473    19.304878    1214.2449    6132.1866    20.545188    17.792655    16.775076    10.272594    10.272594    5.9308849 
   50200    309.46986   -1792.6865    20.441083   -975.31089    6139.3197    20.553151    17.799551    16.781578    10.276576    10.276576    5.9331837 
   50300    293.48876   -1791.6264      19.3855   -449.14275    6140.0329    20.553947     17.80024    16.782227    10.276973    10.276973    5.9334134 
   50400    296.21455   -1791.8052    19.565544   -354.82623     6138.919    20.552704    17.799164    16.781213    10.276352    10.276352    5.9330546 
   50500    292.35929   -1791.5538    19.310897   -279.26435    6139.4188    20.553262    17.799647    16.781668    10.276631    10.276631    5.9332156 
   50600    305.63243   -1792.4328    20.187613    -1407.702    6142.1849    20.556348     17.80232    16.784188    10.278174    10.278174    5.9341065 
   50700    303.33093   -1792.2846    20.035595   -1168.0567    6141.4599    20.555539    17.801619    16.783527     10.27777     10.27777     5.933873 
   50800    309.88619    -1792.721    20.468582   -1085.1441    6138.9314    20.552718    17.799176    16.781224    10.276359    10.276359    5.9330586 
   50900    288.61563   -1791.3172     19.06362    379.51512    6137.2288    20.550818     17.79753    16.779672    10.275409    10.275409      5.93251 
   51000    292.52024   -1791.5767    19.321527    16.583214    6137.6825    20.551324    17.797969    16.780086    10.275662    10.275662    5.9326562 
[...]
   52800    307.40668   -1792.5593    20.304805   -52.267669    6135.4348    20.548815    17.795796    16.778037    10.274407    10.274407    5.9319319 
   52900    284.91011    -1791.073    18.818864    1757.8355    6131.2385    20.544129    17.791738    16.774211    10.272065    10.272065    5.9305793 
   53000     302.1872   -1792.2123    19.960049    1086.1526    6131.2689    20.544163    17.791767    16.774239    10.272082    10.272082     5.930589 
   53100    305.23122   -1792.4092    20.161112    1245.2985    6129.4801    20.542165    17.790037    16.772607    10.271082    10.271082    5.9300122 
   53200    300.20926   -1792.0788    19.829402    745.74808    6133.2435    20.546368    17.793677    16.776039    10.273184    10.273184    5.9312256 
   53300    303.12839   -1792.2668    20.022216    379.63034    6134.4546    20.547721    17.794848    16.777144     10.27386     10.27386     5.931616 
   53400    295.66973   -1791.7755    19.529558    714.05167    6134.0796    20.547302    17.794485    16.776802    10.273651    10.273651    5.9314951 
   53500    291.36508   -1791.4926    19.245227    600.89805    6135.3983    20.548774    17.795761    16.778004    10.274387    10.274387    5.9319202 
   53600    293.22283   -1791.6109    19.367935   -30.700779    6138.5165    20.552255    17.798775    16.780846    10.276127    10.276127    5.9329249 
   53700    316.61717    -1793.156    20.913176   -1791.9856    6141.5307    20.555618    17.801688    16.783592    10.277809    10.277809    5.9338958 
   53800    298.59026   -1791.9672    19.722464   -370.19315    6138.5886    20.552335    17.798844    16.780911    10.276168    10.276168    5.9329481 
   53900    306.77461   -1792.5072    20.263056   -507.26636    6137.1394    20.550718    17.797444    16.779591    10.275359    10.275359    5.9324812 
   54000      298.991   -1791.9922    19.748934    285.19005    6135.6524    20.549058    17.796006    16.778235    10.274529    10.274529     5.932002 
   54100     297.2636   -1791.8783    19.634836    406.76537    6134.8047    20.548111    17.795187    16.777463    10.274056    10.274056    5.9317288 
   54200    304.22858   -1792.3383    20.094886   -652.71971    6138.4175    20.552144    17.798679    16.780756    10.276072    10.276072     5.932893 
   54300    305.21698   -1792.4057    20.160172   -591.15774    6138.5962    20.552344    17.798852    16.780918    10.276172    10.276172    5.9329506 
   54400    307.84827   -1792.5824    20.333974   -367.38068    6137.8841    20.551549    17.798164    16.780269    10.275774    10.275774    5.9327212 
   54500    299.36242   -1792.0286    19.773467    815.75684    6132.6945    20.545755    17.793146    16.775539    10.272878    10.272878    5.9310487 
   54600    299.47386   -1792.0366    19.780828    1813.2549    6128.3651    20.540919    17.788958     16.77159     10.27046     10.27046    5.9296526 
   54700     306.3299   -1792.4953    20.233682    998.25874    6130.2345    20.543008    17.790767    16.773296    10.271504    10.271504    5.9302555 
   54800    323.35962    -1793.623    21.358528   -1542.9706    6139.1635    20.552977      17.7994    16.781435    10.276488    10.276488    5.9331333 
   54900    295.31568   -1791.7712    19.506172   -192.18029    6138.8499    20.552627    17.799097     16.78115    10.276313    10.276313    5.9330323 
   55000    298.94024   -1792.0147    19.745581   -15.179663    6136.8099     20.55035    17.797125     16.77929    10.275175    10.275175     5.932375 
   55100    293.27553   -1791.6438    19.371416    424.55877    6135.6438    20.549048    17.795998    16.778228    10.274524    10.274524    5.9319993 
   55200     294.3962   -1791.7216    19.445438    652.22088    6134.4263    20.547689    17.794821    16.777118    10.273844    10.273844    5.9316069 
   55300    293.92265   -1791.6925    19.414159    649.05237    6134.2005    20.547437    17.794602    16.776912    10.273718    10.273718    5.9315341 
   55400    300.36288   -1792.1184    19.839549    485.75093    6134.3184    20.547569    17.794716    16.777019    10.273784    10.273784    5.9315721 
   55500    314.38693   -1793.0467    20.765865   -960.02076    6137.7562    20.551406     17.79804    16.780153    10.275703    10.275703      5.93268 
   55600    291.05155   -1791.5033    19.224518   -110.92163    6138.9869     20.55278    17.799229    16.781274     10.27639     10.27639    5.9330765 
   55700     304.3374   -1792.3801    20.102074   -1283.5599    6141.6276    20.555726    17.801781     16.78368    10.277863    10.277863    5.9339271 
   55800    291.15369   -1791.5086    19.231265   -316.41517     6139.416    20.553259    17.799644    16.781665    10.276629    10.276629    5.9332147 
   55900    303.02042     -1792.29    20.015085   -925.89723    6140.1996    20.554133    17.800401    16.782379    10.277066    10.277066    5.9334671 
   56000    301.90633   -1792.2162    19.941497   -868.76087    6139.1105    20.552918    17.799349    16.781387    10.276459    10.276459    5.9331163 
   56100     301.5923   -1792.1916    19.920755    -464.7872    6137.9992    20.551677    17.798275    16.780374    10.275839    10.275839    5.9327583 
   56200     307.9438   -1792.6101    20.340283   -468.70318    6136.6459    20.550167    17.796967    16.779141    10.275083    10.275083    5.9323222 
   56300    302.54782   -1792.2493    19.983869    830.02281    6132.6588    20.545715    17.793111    16.775506    10.272858    10.272858    5.9310371 
   56400    310.27459   -1792.7568    20.494237    242.82613    6133.6322    20.546802    17.794053    16.776394    10.273401    10.273401    5.9313509 
   56500    303.21548   -1792.2885    20.027969    841.78476    6131.8519    20.544814    17.792331    16.774771    10.272407    10.272407     5.930777 
   56600    310.27075    -1792.753    20.493983    892.44143    6130.2887    20.543068    17.790819    16.773345    10.271534    10.271534     5.930273 
   56700    297.22021   -1791.8915     19.63197    2261.0724    6126.7829    20.539151    17.787427    16.770147    10.269576    10.269576    5.9291423 
   56800    320.89271   -1793.4592    21.195584   -21.161637    6132.8319    20.545909    17.793279    16.775664    10.272954    10.272954    5.9310929 
   56900    302.36258   -1792.2325    19.971633     570.3495    6133.6049    20.546772    17.794026    16.776369    10.273386    10.273386    5.9313421 
   57000    290.94684   -1791.4794    19.217602    1453.5161    6131.2021    20.544088    17.791703    16.774178    10.272044    10.272044    5.9305675 
   57100    293.77262    -1791.663     19.40425    1317.0446    6131.2687    20.544163    17.791767    16.774239    10.272081    10.272081     5.930589 
   57200    297.67392    -1791.921    19.661938      823.587    6132.4731    20.545508    17.792932    16.775337    10.272754    10.272754    5.9309773 
   57300    282.00111   -1790.8879    18.626719    1583.9015    6133.0092    20.546107     17.79345    16.775826    10.273053    10.273053    5.9311501 
   57400    298.00081   -1791.9463     19.68353    255.91693    6135.5383    20.548931    17.795896    16.778131    10.274465    10.274465    5.9319653 
   57500    307.26216   -1792.5554     20.29526   -990.42049    6139.3947    20.553235    17.799623    16.781646    10.276617    10.276617    5.9332078 
   57600    295.71322   -1791.7916     19.53243   -24.436903    6137.4944    20.551114    17.797787    16.779914    10.275557    10.275557    5.9325956 
   57700    289.02726   -1791.3526    19.090809    259.50845     6136.731    20.550262    17.797049    16.779219    10.275131    10.275131    5.9323496 
   57800    291.06775   -1791.4869    19.225588    1500.5633    6130.9877    20.543849    17.791495    16.773983    10.271925    10.271925    5.9304984 
   57900    287.19766   -1791.2358    18.969961    1459.4722    6131.5233    20.544447    17.792013    16.774471    10.272224    10.272224    5.9306711 
   58000    297.43513   -1791.9107    19.646166    573.62922    6133.8493    20.547045    17.794263    16.776592    10.273522    10.273522    5.9314209 
   58100    292.71718   -1791.6037    19.334536   -235.43914    6138.6672    20.552423     17.79892    16.780983    10.276211    10.276211    5.9329735 
   58200    300.82454   -1792.1328    19.870042   -921.16799    6140.5717    20.554548    17.800761    16.782718    10.277274    10.277274     5.933587 
   58300    310.82429   -1792.7924    20.530546   -1851.8948    6143.0877    20.557355    17.803192     16.78501    10.278678    10.278678    5.9343972 
   58400    297.70724   -1791.9266    19.664139   -710.02804    6139.9371     20.55384    17.800148     16.78214     10.27692     10.27692    5.9333825 
   58500    310.20453   -1792.7541    20.489609   -1065.7455    6139.1858    20.553002    17.799422    16.781456    10.276501    10.276501    5.9331405 
   58600    294.77617   -1791.7322    19.470536    558.36407    6134.6516    20.547941    17.795038    16.777323     10.27397     10.27397    5.9316795 
   58700    297.24205   -1791.8914    19.633412    1085.5633    6132.1716    20.545171     17.79264    16.775062    10.272586    10.272586    5.9308801 
   58800    299.45808   -1792.0372    19.779785    947.18735    6132.1016    20.545093    17.792573    16.774998    10.272547    10.272547    5.9308575 
   58900    301.69192   -1792.1881    19.927335    759.57766    6132.2134    20.545218    17.792681      16.7751    10.272609    10.272609    5.9308936 
   59000    304.45116   -1792.3702    20.109588    495.24467    6133.5386    20.546698    17.793962    16.776309    10.273349    10.273349    5.9313208 
   59100    298.62152   -1791.9827    19.724529    240.19971    6135.5165    20.548906    17.795875    16.778112    10.274453    10.274453    5.9319583 
   59200    300.34136   -1792.0977    19.838128   -395.69048    6138.5819    20.552328    17.798838    16.780905    10.276164    10.276164     5.932946 
   59300    296.49033   -1791.8415     19.58376   -508.48238    6139.4342    20.553279    17.799662    16.781682    10.276639    10.276639    5.9332206 
   59400    294.81098   -1791.7325    19.472835   -721.38761    6140.0564    20.553973    17.800263    16.782249    10.276987    10.276987     5.933421 
   59500    297.44889    -1791.905    19.647075   -736.07386    6139.7911    20.553677    17.800007    16.782007    10.276839    10.276839    5.9333355 
   59600    304.62084     -1792.38    20.120795   -1463.1306    6142.0919    20.556244     17.80223    16.784103    10.278122    10.278122    5.9340766 
   59700    309.58709   -1792.7108    20.448826   -984.40799    6139.0076    20.552803    17.799249    16.781293    10.276401    10.276401    5.9330831 
   59800    289.26883   -1791.3691    19.106766    1165.0959    6133.6914    20.546868     17.79411    16.776448    10.273434    10.273434      5.93137 
   59900    300.47968   -1792.1045    19.847264    1152.6974     6130.809    20.543649    17.791322     16.77382    10.271825    10.271825    5.9304408 
   60000    297.26508   -1791.8898    19.634933    1385.8132    6130.2184     20.54299    17.790751    16.773281    10.271495    10.271495    5.9302503 
   60100     304.7999   -1792.3837    20.132623    585.12155    6132.1758    20.545176    17.792644    16.775066    10.272588    10.272588    5.9308814 
   60200    295.66472   -1791.7798    19.529226    875.70139     6133.218     20.54634    17.793652    16.776016     10.27317     10.27317    5.9312174 
   60300    311.84762   -1792.8448    20.598138   -36.894322    6134.4433    20.547708    17.794837    16.777133    10.273854    10.273854    5.9316123 
   60400    301.56334   -1792.1682    19.918842    492.61079    6133.9217    20.547126    17.794333    16.776658    10.273563    10.273563    5.9314442 
   60500    319.30721   -1793.3368    21.090859   -516.14435    6135.5367    20.548929    17.795894     16.77813    10.274464    10.274464    5.9319648 
   60600    315.61804   -1793.0967    20.847182   -532.23158    6136.2162    20.549687    17.796551    16.778749    10.274844    10.274844    5.9321837 
   60700    294.57525   -1791.7051    19.457265    1767.8696     6129.505    20.542193    17.790061     16.77263    10.271096    10.271096    5.9300203 
   60800    301.58264   -1792.1693    19.920117    1718.1333    6127.6933    20.540169    17.788308    16.770978    10.270084    10.270084     5.929436 
   60900    290.47679   -1791.4394    19.186554    2077.0552    6128.8769    20.541491    17.789453    16.772057    10.270746    10.270746    5.9298177 
   61000    307.50162   -1792.5625    20.311077    304.76807    6133.5663    20.546729    17.793989    16.776334    10.273364    10.273364    5.9313297 
   61100    299.95497   -1792.0671    19.812606    409.56102    6134.4548    20.547721    17.794848    16.777144     10.27386     10.27386    5.9316161 
   61200    287.64636   -1791.2503    18.999599    1048.8798    6134.3213    20.547572    17.794719    16.777022    10.273786    10.273786     5.931573 
   61300    294.83004   -1791.7272    19.474094   -173.22727     6138.353    20.552072    17.798617    16.780697    10.276036    10.276036    5.9328722 
   61400    290.93515   -1791.4672     19.21683    178.20257    6137.0753    20.550646    17.797382    16.779532    10.275323    10.275323    5.9324606 
   61500    301.64252   -1792.1687    19.924072   -212.69639    6137.3171    20.550916    17.797615    16.779753    10.275458    10.275458    5.9325385 
   61600    306.97624   -1792.5204    20.276375   -729.02616    6138.2395    20.551946    17.798507    16.780593    10.275973    10.275973    5.9328357 
   61700    290.96148   -1791.4626    19.218568   -127.42943    6138.3238     20.55204    17.798588     16.78067     10.27602     10.27602    5.9328628 
   61800    288.82358   -1791.3208    19.077356    216.20115    6136.7341    20.550265    17.797052    16.779221    10.275133    10.275133    5.9323506 
   61900    308.62328   -1792.6283    20.385164   -2204.7133    6144.0246      20.5584    17.804097    16.785863      10.2792      10.2792    5.9346989 
   62000    304.14773   -1792.3298    20.089546   -2294.2806    6146.5177     20.56118    17.806505    16.788134     10.28059     10.28059    5.9355015 
   62100     285.7914   -1791.1204    18.877075   -399.83447    6140.8626    20.554873    17.801042    16.782983    10.277436    10.277436    5.9336806 
   62200     302.3937   -1792.2147    19.973689   -495.65563    6138.0059    20.551685    17.798281     16.78038    10.275842    10.275842    5.9327604 
   62300    305.26063   -1792.4045    20.163055    56.522405    6135.4869    20.548873    17.795846    16.778085    10.274437    10.274437    5.9319487 
   62400    305.83584   -1792.4456    20.201049    740.37172    6131.8031     20.54476    17.792284    16.774726     10.27238     10.27238    5.9307613 
   62500    297.33818   -1791.8806    19.639762    2390.4079    6125.4926    20.537709    17.786178     16.76897    10.268855    10.268855     5.928726 
   62600     292.8264   -1791.5813     19.34175    2670.4099    6125.4416    20.537652    17.786129    16.768923    10.268826    10.268826    5.9287096 
   62700    283.96866    -1791.003    18.756679    2340.0642    6128.6675    20.541257    17.789251    16.771866    10.270629    10.270629    5.9297502 
   62800    291.45186   -1791.4981    19.250959   -254.42869    6138.4702    20.552203     17.79873    16.780804    10.276102    10.276102      5.93291 
   62900    306.87626   -1792.5155    20.269771   -1284.8895    6140.9012    20.554916    17.801079    16.783019    10.277458    10.277458    5.9336931 
   63000    294.76199   -1791.7137    19.469599     323.9062    6135.5666    20.548962    17.795923    16.778157    10.274481    10.274481    5.9319744 
   63100    302.98753   -1792.2573    20.012912   -189.16859    6135.6299    20.549033    17.795984    16.778215    10.274516    10.274516    5.9319948 
   63200    295.01659   -1791.7312    19.486417    141.11441    6136.2988    20.549779    17.796631    16.778825     10.27489     10.27489    5.9322104 
   63300     297.8448   -1791.9203    19.673225    46.627947    6135.7023    20.549114    17.796054    16.778281    10.274557    10.274557    5.9320181 
   63400    302.35128   -1792.2207    19.970887   -242.05215    6136.9804     20.55054     17.79729    16.779446     10.27527     10.27527      5.93243 
   63500    295.18345   -1791.7487    19.497438   -5.8209485    6137.4374     20.55105    17.797732    16.779862    10.275525    10.275525    5.9325773 
   63600    303.27876   -1792.2855    20.032149   -783.91452    6139.0348    20.552833    17.799276    16.781318    10.276417    10.276417    5.9330919 
   63700    314.65323   -1793.0396    20.783455   -690.57473    6136.7817    20.550319    17.797098    16.779265    10.275159    10.275159     5.932366 
   63800    308.74704   -1792.6498    20.393339     322.7166    6133.1494    20.546263    17.793586    16.775954    10.273132    10.273132    5.9311953 
   63900    293.96763   -1791.6789    19.417131    1530.8066    6130.6458    20.543467    17.791164    16.773671    10.271734    10.271734    5.9303881 
   64000    305.81165   -1792.4543    20.199451    256.94345    6134.4815    20.547751    17.794874    16.777168    10.273875    10.273875    5.9316247 
   64100    291.24922   -1791.4933    19.237574    971.51224    6133.5905    20.546756    17.794012    16.776356    10.273378    10.273378    5.9313375 
   64200    316.72329   -1793.1766    20.920186    13.653426    6133.3855    20.546527    17.793814    16.776169    10.273263    10.273263    5.9312714 
   64300    297.47215   -1791.9067    19.648611    918.51998    6132.3627    20.545385    17.792825    16.775236    10.272692    10.272692    5.9309417 
   64400    290.11949   -1791.4236    19.162954    822.21869    6133.3366    20.546472    17.793767    16.776124    10.273236    10.273236    5.9312556 
   64500    303.46881   -1792.3035    20.044702    385.33663    6133.6367    20.546807    17.794057    16.776398    10.273404    10.273404    5.9313524 
   64600    306.26261   -1792.4895    20.229238   -276.47699    6135.6748    20.549083    17.796028    16.778256    10.274541    10.274541    5.9320093 
   64700    298.91713   -1791.9974    19.744054   -191.57892    6137.5679    20.551196    17.797858    16.779981    10.275598    10.275598    5.9326193 
   64800    295.80628    -1791.792    19.538577   -521.51242    6139.3048    20.553134    17.799537    16.781564    10.276567    10.276567    5.9331789 
   64900    301.25729   -1792.1476    19.898626    285.52964    6134.6396    20.547927    17.795027    16.777312    10.273964    10.273964    5.9316756 
   65000    292.07558   -1791.5375    19.292157    1205.0671     6132.838    20.545915    17.793285     16.77567    10.272958    10.272958    5.9310949 
Loop time of 15.1419 on 8 procs for 65000 steps with 512 atoms

Performance: 741.782 ns/day, 0.032 hours/ns, 4292.720 timesteps/s
97.4% CPU use with 8 MPI tasks x no OpenMP threads

MPI task timing breakdown:
Section |  min time  |  avg time  |  max time  |%varavg| %total
---------------------------------------------------------------
Pair    | 7.5314     | 7.6629     | 7.801      |   3.0 | 50.61
Neigh   | 1.3991     | 1.4507     | 1.5533     |   4.1 |  9.58
Comm    | 4.2958     | 4.5133     | 4.6741     |   5.6 | 29.81
Output  | 0.016159   | 0.016828   | 0.019358   |   0.8 |  0.11
Modify  | 1.2104     | 1.2232     | 1.2392     |   0.9 |  8.08
Other   |            | 0.2749     |            |       |  1.82

Nlocal:    64 ave 70 max 61 min
Histogram: 1 2 1 2 0 1 0 0 0 1
Nghost:    665 ave 668 max 659 min
Histogram: 1 0 0 0 1 0 2 1 2 1
Neighs:    1731.62 ave 1889 max 1625 min
Histogram: 2 0 2 1 0 1 1 0 0 1

Total # of neighbors = 13853
Ave neighs/atom = 27.0566
Neighbor list builds = 3847
Dangerous builds = 0
write_restart Restart.final

Please see the log.cite file for references relevant to this simulation

Total wall time: 0:00:15
