LAMMPS (4 Jan 2019)
# 3D simple cubic lattice simulation
dimension   2
boundary    p f p

units		   lj
atom_style	bond
atom_modify sort 0 1.
bond_style  harmonic
pair_style  none
comm_modify cutoff 2.0

# geometry
read_data	data.pos
  orthogonal box = (0 -1 -0.0001) to (16 1 0.0001)
  8 by 1 by 1 MPI processor grid
  reading atoms ...
  16 atoms
  scanning bonds ...
  1 = max bonds/atom
  reading bonds ...
  16 bonds
  2 = max # of 1-2 neighbors
  2 = max # of 1-3 neighbors
  4 = max # of 1-4 neighbors
  6 = max # of special neighbors

#
neighbor 0.5 nsq
neigh_modify delay 0 check no

#Langevin random seed
variable r equal 571101

#Langevin Temperature
variable t equal 0.005

# Langevin Damping variable
variable d equal 0.5

# time step
timestep  0.005

# Create velocities and equilibrate
compute   MyTemp all temp/partial 1 0 0
velocity  all create $t 28711 mom yes rot yes dist gaussian temp MyTemp
velocity  all create 0.005 28711 mom yes rot yes dist gaussian temp MyTemp
velocity  all set NULL 0.0 0.0 units box
#
fix        1 all langevin $t $t $d $r
fix        1 all langevin 0.005 $t $d $r
fix        1 all langevin 0.005 0.005 $d $r
fix        1 all langevin 0.005 0.005 0.5 $r
fix        1 all langevin 0.005 0.005 0.5 571101
fix_modify 1 temp MyTemp
fix        2 all setforce NULL 0. 0.
fix        3 all nve
fix        4 all phonon 10 50000 500000 map.in phonon sysdim 1
fix_modify 4 temp MyTemp
#
#                    1    2    3  4
thermo_style  custom step temp pe etotal
thermo_modify temp MyTemp
thermo   100

dump    	4 all atom 50000 dump_LJ_ANA.lammpstrj

run 		20000
Neighbor list info ...
  update every 1 steps, delay 0 steps, check no
  max neighbors/atom: 2000, page size: 100000
  master list distance cutoff = 0
  ghost atom cutoff = 2
  0 neighbor lists, perpetual/occasional/extra = 0 0 0
WARNING: Inconsistent image flags (../domain.cpp:782)
Per MPI rank memory allocation (min/avg/max) = 4.107 | 4.107 | 4.107 Mbytes
Step Temp PotEng TotEng 
       0        0.005            0   0.00234375 
     100 0.0026123322 0.00068088227  0.001905413 
     200 0.0041286713 0.00053658232  0.002471897 
     300 0.0037875861 0.00076062704  0.002536058 
     400 0.0042719894 0.0016796265 0.0036821215 
     500 0.0037172663   0.00180529 0.0035477586 
     600 0.0070143506 0.0029152312  0.006203208 
     700 0.0039876604 0.0034146994 0.0052839152 
     800 0.0073662953 0.0019763106 0.0054292615 
     900 0.0044452971 0.0026238475 0.0047075805 
    1000  0.005916896 0.0020887752 0.0048623202 
    1100 0.0041431674 0.0021721382 0.0041142478 
    1200 0.0080470071 0.0017738137 0.0055458482 
    1300 0.0043774571  0.001684909  0.003736842 
    1400 0.0037149501 0.0019586477 0.0037000305 
    1500 0.0069858934 0.0020873593 0.0053619969 
    1600  0.004162704 0.0017501671 0.0037014346 
    1700 0.0043894285  0.001941865 0.0039994096 
    1800 0.0044740483  0.001844074 0.0039412842 
    1900 0.0019237003 0.0018838604 0.0027855949 
    2000 0.0058940132 0.0020847034 0.0048475221 
    2100 0.0063021914 0.0013800254 0.0043341776 
    2200 0.0048463383 0.0020746552 0.0043463763 
    2300 0.0037952259 0.0020946485 0.0038736606 
    2400 0.0063066998 0.0018003663 0.0047566318 
    2500 0.0048234034 0.0017941547 0.0040551251 
    2600 0.0054143705 0.0031217766 0.0056597628 
    2700 0.0063509364  0.004522069 0.0074990705 
    2800 0.0053793876 0.0055651333 0.0080867212 
    2900 0.0092251224  0.002870045 0.0071943211 
    3000 0.0042690614 0.0020141887 0.0040153112 
    3100 0.0041027716 0.0020306992 0.0039538733 
    3200 0.0033736187 0.0023047332  0.003886117 
    3300  0.004624242 0.0026386404 0.0048062538 
    3400 0.0086901268  0.003499989 0.0075734859 
    3500 0.0050105548 0.0036087253 0.0059574229 
    3600 0.0046994737   0.00358281 0.0057856882 
    3700 0.0026831344 0.0023463672 0.0036040865 
    3800 0.0052222998 0.0022190977 0.0046670507 
    3900 0.0057915058 0.0017445935 0.0044593619 
    4000 0.0064748533 0.0023347146 0.0053698021 
    4100 0.0066808459 0.0027604638 0.0058921103 
    4200 0.0038380405 0.0032384328 0.0050375143 
    4300 0.0042962559 0.0039308827 0.0059447527 
    4400  0.004508782  0.004520986 0.0066344775 
    4500 0.0060350397 0.0055406283 0.0083695532 
    4600 0.0039241438 0.0058157766  0.007655219 
    4700  0.005403852 0.0045896032 0.0071226588 
    4800 0.0068942123 0.0033593508 0.0065910128 
    4900 0.0045066799 0.0023558374 0.0044683437 
    5000 0.0031788235 0.0016966819 0.0031867555 
    5100 0.0054743822 0.0015378104 0.0041039271 
    5200 0.0087420241 0.0013749332  0.005472757 
    5300 0.0058560566 0.0010565588 0.0038015854 
    5400 0.0071713248 0.00078629065 0.0041478491 
    5500 0.0074259706 0.0017177869 0.0051987106 
    5600 0.0046032628  0.003373687 0.0055314664 
    5700 0.0045703005 0.0022675829 0.0044099113 
    5800 0.0022562176 0.0013284773 0.0023860793 
    5900 0.0040307778 0.0013335079 0.0032229349 
    6000 0.0066319109 0.00098144438 0.0040901526 
    6100 0.0050701211 0.0017737794 0.0041503987 
    6200 0.0049761865 0.0017620981 0.0040946855 
    6300 0.0042611114 0.0012115361  0.003208932 
    6400 0.0056418094 0.0014201702 0.0040647683 
    6500 0.0042573119 0.0021767532 0.0041723682 
    6600 0.0042974624 0.0020682666 0.0040827021 
    6700 0.0091257124 0.0022001605 0.0064778382 
    6800 0.0031842772  0.002738402 0.0042310319 
    6900 0.0049715102 0.0023740839 0.0047044793 
    7000 0.0058751408 0.0021408969 0.0048948691 
    7100 0.0049695055 0.0020122715 0.0043417272 
    7200 0.0023053582 0.0028243598 0.0039049964 
    7300 0.0075990837 0.0017704679 0.0053325384 
    7400 0.0089482291 0.00065476272 0.0048492451 
    7500  0.003608467 0.0018605743 0.0035520432 
    7600 0.0048858774 0.0021997949   0.00449005 
    7700 0.0053113935 0.0031749025 0.0056646182 
    7800 0.0066486748 0.0024659049 0.0055824712 
    7900 0.0034223602 0.0019612833 0.0035655146 
    8000 0.0067188833 0.0016078817 0.0047573582 
    8100 0.0045347194 0.0012639325 0.0033895822 
    8200 0.0038807243 0.0010910002 0.0029100897 
    8300 0.0052586214 0.0017096537 0.0041746325 
    8400 0.0045607021 0.0017054835 0.0038433127 
    8500 0.0075105678 0.0010457873 0.0045663659 
    8600  0.007838027 0.0014351895 0.0051092647 
    8700 0.0059556774 0.0032540782  0.006045802 
    8800 0.0060958658 0.0026850379  0.005542475 
    8900 0.0045693663 0.0026399815  0.004781872 
    9000 0.0026486955 0.0027901777 0.0040317537 
    9100 0.0079991464 0.0021824065 0.0059320064 
    9200 0.0041783032 0.0026936957 0.0046522753 
    9300 0.0038346351 0.0036933188  0.005490804 
    9400  0.004167388 0.0022110924 0.0041645555 
    9500 0.0082449699 0.00089337193 0.0047582016 
    9600 0.0062493111 0.0011566546 0.0040860191 
    9700  0.010395538 0.0017016878 0.0065745963 
    9800 0.0077200279 0.0020714893 0.0056902524 
    9900 0.0038161493 0.0020232872 0.0038121072 
   10000 0.0062274172  0.002166934 0.0050860358 
   10100 0.0057560264 0.0020628992 0.0047610366 
   10200 0.0047591859 0.0019180219 0.0041488903 
   10300 0.0079264934 0.0026375762   0.00635312 
   10400  0.008821609  0.003037754 0.0071728832 
   10500 0.0044988771 0.0029010287 0.0050098773 
   10600 0.0032367135 0.0032910495  0.004808259 
   10700 0.0045611946 0.0036463491 0.0057844091 
   10800  0.007810277 0.0030156211 0.0066766885 
   10900 0.0069740257 0.0026659217 0.0059349963 
   11000 0.0054091642 0.0036465223  0.006182068 
   11100 0.0050120684 0.0026848205 0.0050342275 
   11200 0.0055407157 0.0024880054 0.0050852159 
   11300 0.0063549021 0.0025116498 0.0054905102 
   11400 0.0019855194 0.0027852613 0.0037159735 
   11500 0.0062689434  0.002207674 0.0051462412 
   11600 0.0072565305 0.0025785182 0.0059800169 
   11700 0.0069135636 0.0030332984 0.0062740313 
   11800 0.0069336392 0.0025534666 0.0058036099 
   11900 0.0042863559 0.0027494534 0.0047586827 
   12000 0.0057152292 0.0030947545 0.0057737681 
   12100 0.0051888445 0.0029860894 0.0054183602 
   12200 0.0087093767 0.0033705413 0.0074530616 
   12300 0.0082836105 0.0039781758 0.0078611182 
   12400 0.0073556636 0.0040898956 0.0075378629 
   12500 0.0087066641 0.0023923839 0.0064736327 
   12600 0.0061047122 0.0018999667 0.0047615505 
   12700 0.0090091466 0.0018735762 0.0060966136 
   12800 0.0071210973 0.0010989404 0.0044369548 
   12900 0.0054103745 0.0016357407 0.0041718537 
   13000 0.0034545318 0.0030108798 0.0046301916 
   13100 0.0066027382 0.0018543194 0.0049493529 
   13200 0.0030754526 0.0016694535 0.0031110719 
   13300 0.0075260487 0.0010418199 0.0045696552 
   13400 0.0092643125 0.0018264948 0.0061691413 
   13500 0.0017848902 0.0024166007  0.003253268 
   13600 0.0069979583  0.001580563 0.0048608559 
   13700 0.0033355757  0.002096126 0.0036596771 
   13800 0.0022234139 0.0015672873 0.0026095126 
   13900 0.0094330424  0.001314468 0.0057362067 
   14000 0.0058901408 0.0014675081 0.0042285116 
   14100   0.00210496 0.0021208353 0.0031075353 
   14200  0.006741278 0.0014198118 0.0045797859 
   14300 0.0059747639 0.0013423468 0.0041430173 
   14400 0.0022564051 0.0016757628 0.0027334527 
   14500 0.0046773692 0.0016426393 0.0038351561 
   14600 0.0055836881 0.0014755559 0.0040929097 
   14700 0.0038945832 0.0014338688 0.0032594547 
   14800 0.0031741587 0.0018634164 0.0033513033 
   14900 0.0034604532 0.0015006172 0.0031227046 
   15000 0.0030478566 0.0014976588 0.0029263416 
   15100 0.0053303199 0.0026405547 0.0051391421 
   15200 0.0044937078 0.0039509223 0.0060573479 
   15300 0.0062314794 0.0032855768 0.0062065828 
   15400 0.0064821784 0.0033474172 0.0063859383 
   15500 0.0062551793 0.0028945904 0.0058267057 
   15600 0.0047640313 0.0024789452 0.0047120848 
   15700 0.0037724628 0.0024176802 0.0041860221 
   15800  0.003793827 0.0024094002 0.0041877566 
   15900 0.0036210654 0.0026172973 0.0043146717 
   16000 0.0076809571 0.0015836524 0.0051841011 
   16100 0.0024674953 0.0021044748 0.0032611133 
   16200 0.0022193009  0.002880031 0.0039203283 
   16300 0.0065104071 0.0032189823 0.0062707356 
   16400 0.0046466945 0.0039172629 0.0060954009 
   16500 0.0035422715 0.0035217725 0.0051822123 
   16600 0.0034886026 0.0031708292 0.0048061116 
   16700 0.0059696461 0.0036277828 0.0064260544 
   16800 0.0043762443 0.0032050132 0.0052563777 
   16900 0.0036621195 0.0030916023 0.0048082208 
   17000 0.0050739997 0.0032466825 0.0056251198 
   17100 0.0037506638 0.0029181664   0.00467629 
   17200 0.0080515761  0.001816921 0.0055910973 
   17300 0.0041352042 0.0028555391 0.0047939161 
   17400 0.0064483683 0.0032231781 0.0062458507 
   17500 0.0047017606 0.0029383371 0.0051422874 
   17600 0.0051299744 0.0032395684  0.005644244 
   17700 0.0055532434 0.0027852882  0.005388371 
   17800 0.0056017537 0.0027753154 0.0054011374 
   17900  0.004236473 0.0027394659 0.0047253126 
   18000 0.0060794573 0.00086881572 0.0037185613 
   18100   0.00729835 0.00077511667 0.0041962182 
   18200 0.0033041051 0.0020960209 0.0036448202 
   18300 0.0034172237 0.0025009167 0.0041027403 
   18400 0.0072947267 0.0021142252 0.0055336283 
   18500 0.0060295249 0.0019671541 0.0047934939 
   18600 0.0047236803 0.0017998411 0.0040140663 
   18700 0.0056625873  0.002418249 0.0050725868 
   18800 0.0032622968 0.0022756932 0.0038048948 
   18900 0.0034401266 0.0025614905 0.0041740498 
   19000 0.0050792029 0.0027724405 0.0051533168 
   19100 0.0071466232 0.0028699261 0.0062199057 
   19200 0.0051360349 0.0026805104 0.0050880268 
   19300  0.004535581 0.0031640801 0.0052901337 
   19400 0.0032185957 0.0039234751 0.0054321919 
   19500 0.0091472641 0.0027231583 0.0070109384 
   19600 0.0056929719 0.0027159342 0.0053845148 
   19700 0.0079557633 0.0028336685 0.0065629326 
   19800  0.007632465 0.0048200718 0.0083977897 
   19900   0.01229901 0.0038925146 0.0096576754 
   20000   0.00658104 0.0034669689 0.0065518314 
Loop time of 0.419108 on 8 procs for 20000 steps with 16 atoms

Performance: 20615197.563 tau/day, 47720.365 timesteps/s
99.9% CPU use with 8 MPI tasks x no OpenMP threads

MPI task timing breakdown:
Section |  min time  |  avg time  |  max time  |%varavg| %total
---------------------------------------------------------------
Pair    | 0          | 0          | 0          |   0.0 |  0.00
Bond    | 0.0023386  | 0.0024494  | 0.0026389  |   0.2 |  0.58
Neigh   | 0.0599     | 0.063061   | 0.065848   |   0.8 | 15.05
Comm    | 0.27656    | 0.28125    | 0.28536    |   0.6 | 67.11
Output  | 0.002038   | 0.0021243  | 0.0025709  |   0.4 |  0.51
Modify  | 0.064561   | 0.065978   | 0.068186   |   0.5 | 15.74
Other   |            | 0.00425    |            |       |  1.01

Nlocal:    2 ave 3 max 1 min
Histogram: 1 0 0 0 0 6 0 0 0 1
Nghost:    4 ave 5 max 3 min
Histogram: 1 0 0 0 0 6 0 0 0 1
Neighs:    0 ave 0 max 0 min
Histogram: 8 0 0 0 0 0 0 0 0 0

Total # of neighbors = 0
Ave neighs/atom = 0
Ave special neighs/atom = 6
Neighbor list builds = 20000
Dangerous builds not checked

Please see the log.cite file for references relevant to this simulation

Total wall time: 0:00:00
