LAMMPS (17 Feb 2022)

units           real

atom_style      full
bond_style      harmonic
angle_style     charmm
dihedral_style  charmm
improper_style  harmonic

pair_style      lj/charmm/coul/long 8 10
pair_modify     mix arithmetic
kspace_style    pppm 1e-4

read_data       data.bpti
Reading data file ...
  orthogonal box = (-10 -10 -30) to (50 50 30)
  2 by 2 by 2 MPI processor grid
  reading atoms ...
  892 atoms
  scanning bonds ...
  4 = max bonds/atom
  scanning angles ...
  6 = max angles/atom
  scanning dihedrals ...
  18 = max dihedrals/atom
  scanning impropers ...
  2 = max impropers/atom
  reading bonds ...
  906 bonds
  reading angles ...
  1626 angles
  reading dihedrals ...
  2501 dihedrals
  reading impropers ...
  137 impropers
Finding 1-2 1-3 1-4 neighbors ...
  special bond factors lj:    0        0        0       
  special bond factors coul:  0        0        0       
     4 = max # of 1-2 neighbors
     9 = max # of 1-3 neighbors
    19 = max # of 1-4 neighbors
    21 = max # of special neighbors
  special bonds CPU = 0.001 seconds
  read_data CPU = 0.112 seconds

special_bonds   charmm
neigh_modify    delay 2 every 1


# ------------- MINIMIZE ----------

minimize 	1e-4 1e-6 1000 10000
WARNING: Using 'neigh_modify every 1 delay 0 check yes' setting during minimization (src/min.cpp:187)
PPPM initialization ...
WARNING: System is not charge neutral, net charge = 6 (src/kspace.cpp:325)
  using 12-bit tables for long-range coulomb (src/kspace.cpp:340)
  G vector (1/distance) = 0.20327216
  grid = 16 16 16
  stencil order = 5
  estimated absolute RMS force accuracy = 0.031639896
  estimated relative force accuracy = 9.5282607e-05
  using double precision FFTW3
  3d grid and FFT values/proc = 2197 512
  generated 378 of 378 mixed pair_coeff terms from arithmetic mixing rule
Neighbor list info ...
  update every 1 steps, delay 0 steps, check yes
  max neighbors/atom: 2000, page size: 100000
  master list distance cutoff = 12
  ghost atom cutoff = 12
  binsize = 6, bins = 10 10 10
  1 neighbor lists, perpetual/occasional/extra = 1 0 0
  (1) pair lj/charmm/coul/long, perpetual
      attributes: half, newton on
      pair build: half/bin/newton
      stencil: half/bin/3d
      bin: standard
Per MPI rank memory allocation (min/avg/max) = 17.21 | 17.38 | 17.87 Mbytes
Step Temp E_pair E_mol TotEng Press 
       0            0   -3075.6498    943.91164   -2131.7381   -380.67776 
     241            0   -4503.3131    749.58666   -3753.7264   -29.045015 
Loop time of 2.44428 on 8 procs for 241 steps with 892 atoms

94.1% CPU use with 8 MPI tasks x no OpenMP threads

Minimization stats:
  Stopping criterion = energy tolerance
  Energy initial, next-to-last, final = 
     -2131.73812515172   -3753.4398831974  -3753.72641421013
  Force two-norm initial, final = 1086.2055 26.368743
  Force max component initial, final = 310.81136 3.9276324
  Final line search alpha, max atom move = 0.0059664942 0.023434196
  Iterations, force evaluations = 241 463

MPI task timing breakdown:
Section |  min time  |  avg time  |  max time  |%varavg| %total
---------------------------------------------------------------
Pair    | 0.20302    | 0.52705    | 1.2026     |  47.5 | 21.56
Bond    | 0.015918   | 0.039907   | 0.092374   |  12.8 |  1.63
Kspace  | 1.0018     | 1.7325     | 2.0777     |  28.3 | 70.88
Neigh   | 0.031973   | 0.032041   | 0.032145   |   0.0 |  1.31
Comm    | 0.067034   | 0.084665   | 0.091632   |   2.5 |  3.46
Output  | 0          | 0          | 0          |   0.0 |  0.00
Modify  | 0          | 0          | 0          |   0.0 |  0.00
Other   |            | 0.02807    |            |       |  1.15

Nlocal:          111.5 ave         285 max          27 min
Histogram: 2 2 1 1 0 0 0 1 0 1
Nghost:            660 ave         709 max         579 min
Histogram: 1 0 0 0 2 1 0 0 3 1
Neighs:        18611.4 ave       44258 max        4887 min
Histogram: 3 1 1 0 0 0 2 0 0 1

Total # of neighbors = 148891
Ave neighs/atom = 166.91816
Ave special neighs/atom = 10.939462
Neighbor list builds = 15
Dangerous builds = 0
reset_timestep  0

# ------------- RUN ---------------

thermo          100
thermo_style    multi
timestep	8

run_style respa 3 2 8 bond 1 dihedral 2 pair 2 kspace 3
Respa levels:
  1 = bond angle
  2 = dihedral improper pair
  3 = kspace

velocity        all create 200.0 12345678 dist uniform
#dump            dump1 all atom 100 4pti.dump

fix             1 all nvt temp 200 300 25
fix             cor all filter/corotate m 1.0
  163 = # of size 2 clusters
  0 = # of size 3 clusters
  25 = # of size 4 clusters
  0 = # of size 5 clusters
  100 = # of frozen angles

run             1000

CITE-CITE-CITE-CITE-CITE-CITE-CITE-CITE-CITE-CITE-CITE-CITE-CITE

Your simulation uses code contributions which should be cited:

- Mollified Impulse Method with Corotational Filter:

@Article{Fath2017,
 Title ={A fast mollified impulse method for biomolecular atomistic simulations},
 Author = {L. Fath and M. Hochbruck and C.V. Singh},
 Journal = {Journal of Computational Physics},
 Year = {2017},
 Pages = {180 - 198},
 Volume = {333},

 Doi = {https://doi.org/10.1016/j.jcp.2016.12.024},
 ISSN = {0021-9991},
 Keywords = {Mollified impulse method},
 Url = {https://www.sciencedirect.com/science/article/pii/S0021999116306787}
}

CITE-CITE-CITE-CITE-CITE-CITE-CITE-CITE-CITE-CITE-CITE-CITE-CITE

PPPM initialization ...
  using 12-bit tables for long-range coulomb (src/kspace.cpp:340)
  G vector (1/distance) = 0.20327216
  grid = 16 16 16
  stencil order = 5
  estimated absolute RMS force accuracy = 0.031639896
  estimated relative force accuracy = 9.5282607e-05
  using double precision FFTW3
  3d grid and FFT values/proc = 2197 512
  generated 378 of 378 mixed pair_coeff terms from arithmetic mixing rule
Per MPI rank memory allocation (min/avg/max) = 17.27 | 17.59 | 18.4 Mbytes
---------------- Step        0 ----- CPU =      0.0000 (sec) ----------------
TotEng   =     -3220.3378 KinEng   =       531.1804 Temp     =       200.0000 
PotEng   =     -3751.5182 E_bond   =        42.2810 E_angle  =       345.2593 
E_dihed  =       337.8361 E_impro  =        24.2103 E_vdwl   =      -288.5339 
E_coul   =      -886.3622 E_long   =     -3326.2088 Press    =        83.2284 
---------------- Step      100 ----- CPU =      3.0063 (sec) ----------------
TotEng   =     -2718.4266 KinEng   =       539.6247 Temp     =       203.1794 
PotEng   =     -3258.0513 E_bond   =       203.2306 E_angle  =       566.1888 
E_dihed  =       397.6756 E_impro  =        34.7695 E_vdwl   =      -248.6577 
E_coul   =      -874.8446 E_long   =     -3336.4135 Press    =       135.8654 
---------------- Step      200 ----- CPU =      5.9464 (sec) ----------------
TotEng   =     -2662.0327 KinEng   =       625.0262 Temp     =       235.3348 
PotEng   =     -3287.0589 E_bond   =       208.1710 E_angle  =       590.8275 
E_dihed  =       389.1424 E_impro  =        30.5878 E_vdwl   =      -240.5403 
E_coul   =      -926.3099 E_long   =     -3338.9374 Press    =       103.4795 
---------------- Step      300 ----- CPU =     12.4820 (sec) ----------------
TotEng   =     -2661.6855 KinEng   =       623.7438 Temp     =       234.8520 
PotEng   =     -3285.4294 E_bond   =       203.0498 E_angle  =       573.6699 
E_dihed  =       382.9687 E_impro  =        41.8995 E_vdwl   =      -218.1735 
E_coul   =      -926.9543 E_long   =     -3341.8895 Press    =        45.1133 
---------------- Step      400 ----- CPU =     19.3008 (sec) ----------------
TotEng   =     -2630.9086 KinEng   =       647.6810 Temp     =       243.8648 
PotEng   =     -3278.5896 E_bond   =       191.7002 E_angle  =       607.7551 
E_dihed  =       409.1992 E_impro  =        43.6704 E_vdwl   =      -217.9547 
E_coul   =      -967.6846 E_long   =     -3345.2752 Press    =      -106.5530 
---------------- Step      500 ----- CPU =     26.2072 (sec) ----------------
TotEng   =     -2593.0275 KinEng   =       669.2675 Temp     =       251.9926 
PotEng   =     -3262.2950 E_bond   =       236.9058 E_angle  =       576.9134 
E_dihed  =       386.1219 E_impro  =        41.7719 E_vdwl   =      -210.2067 
E_coul   =      -952.0048 E_long   =     -3341.7965 Press    =       166.5614 
---------------- Step      600 ----- CPU =     31.0631 (sec) ----------------
TotEng   =     -2556.9473 KinEng   =       694.8614 Temp     =       261.6292 
PotEng   =     -3251.8088 E_bond   =       221.9712 E_angle  =       613.2326 
E_dihed  =       393.4704 E_impro  =        34.0487 E_vdwl   =      -229.2152 
E_coul   =      -943.5266 E_long   =     -3341.7898 Press    =       -15.0404 
---------------- Step      700 ----- CPU =     39.9784 (sec) ----------------
TotEng   =     -2502.7609 KinEng   =       719.1269 Temp     =       270.7656 
PotEng   =     -3221.8878 E_bond   =       238.4057 E_angle  =       631.9560 
E_dihed  =       401.7353 E_impro  =        41.8275 E_vdwl   =      -230.2369 
E_coul   =      -966.9496 E_long   =     -3338.6259 Press    =         5.1718 
---------------- Step      800 ----- CPU =     47.6965 (sec) ----------------
TotEng   =     -2481.3662 KinEng   =       719.3376 Temp     =       270.8449 
PotEng   =     -3200.7038 E_bond   =       270.6909 E_angle  =       623.0657 
E_dihed  =       404.4476 E_impro  =        37.2580 E_vdwl   =      -227.4084 
E_coul   =      -972.9366 E_long   =     -3335.8210 Press    =        -4.7923 
---------------- Step      900 ----- CPU =     54.8107 (sec) ----------------
TotEng   =     -2419.6297 KinEng   =       771.8199 Temp     =       290.6056 
PotEng   =     -3191.4496 E_bond   =       266.6560 E_angle  =       649.1400 
E_dihed  =       380.5193 E_impro  =        40.6179 E_vdwl   =      -256.8956 
E_coul   =      -934.2514 E_long   =     -3337.2357 Press    =        20.2272 
---------------- Step     1000 ----- CPU =     63.0516 (sec) ----------------
TotEng   =     -2337.8598 KinEng   =       796.4068 Temp     =       299.8631 
PotEng   =     -3134.2667 E_bond   =       270.8593 E_angle  =       659.0193 
E_dihed  =       420.6978 E_impro  =        43.3727 E_vdwl   =      -241.4962 
E_coul   =      -942.3432 E_long   =     -3344.3763 Press    =      -159.6528 
Loop time of 63.0517 on 8 procs for 1000 steps with 892 atoms

Performance: 10.962 ns/day, 2.189 hours/ns, 15.860 timesteps/s
84.0% CPU use with 8 MPI tasks x no OpenMP threads

MPI task timing breakdown:
Section |  min time  |  avg time  |  max time  |%varavg| %total
---------------------------------------------------------------
Pair    | 1.2121     | 6.3939     | 12.924     | 165.9 | 10.14
Bond    | 0.17032    | 0.92352    | 1.8234     |  58.7 |  1.46
Kspace  | 5.4925     | 5.7108     | 5.8455     |   4.4 |  9.06
Neigh   | 1.2104     | 1.2426     | 1.2861     |   2.7 |  1.97
Comm    | 39.825     | 47.391     | 53.496     |  70.4 | 75.16
Output  | 0.034827   | 0.043814   | 0.045132   |   1.6 |  0.07
Modify  | 0.92047    | 1.0953     | 1.2719     |  12.0 |  1.74
Other   |            | 0.2512     |            |       |  0.40

Nlocal:          111.5 ave         243 max           3 min
Histogram: 1 1 0 2 1 1 0 1 0 1
Nghost:         639.25 ave         693 max         594 min
Histogram: 2 1 1 0 0 1 0 0 2 1
Neighs:        18152.4 ave       33453 max         792 min
Histogram: 1 1 1 1 0 0 0 1 0 3

Total # of neighbors = 145219
Ave neighs/atom = 162.80157
Ave special neighs/atom = 10.939462
Neighbor list builds = 189
Dangerous builds = 0

unfix           cor
unfix           1

Total wall time: 0:01:05
