LAMMPS (2 Aug 2023 - Development - bc02a7cc6)

units           real

atom_style      full
bond_style      harmonic
angle_style     charmm
dihedral_style  charmm
improper_style  harmonic

pair_style      lj/charmm/coul/long 8 10
pair_modify     mix arithmetic
kspace_style    pppm 1e-4

read_data       data.bpti
Reading data file ...
  orthogonal box = (-10 -10 -30) to (50 50 30)
  2 by 2 by 2 MPI processor grid
  reading atoms ...
  892 atoms
  scanning bonds ...
  4 = max bonds/atom
  scanning angles ...
  6 = max angles/atom
  scanning dihedrals ...
  18 = max dihedrals/atom
  scanning impropers ...
  2 = max impropers/atom
  reading bonds ...
  906 bonds
  reading angles ...
  1626 angles
  reading dihedrals ...
  2501 dihedrals
  reading impropers ...
  137 impropers
Finding 1-2 1-3 1-4 neighbors ...
  special bond factors lj:    0        0        0       
  special bond factors coul:  0        0        0       
     4 = max # of 1-2 neighbors
     9 = max # of 1-3 neighbors
    19 = max # of 1-4 neighbors
    21 = max # of special neighbors
  special bonds CPU = 0.001 seconds
  read_data CPU = 0.062 seconds

special_bonds   charmm
neigh_modify    delay 2 every 1


# ------------- MINIMIZE ----------

minimize 	1e-4 1e-6 1000 10000
Switching to 'neigh_modify every 1 delay 0 check yes' setting during minimization
PPPM initialization ...
WARNING: System is not charge neutral, net charge = 6 (src/kspace.cpp:327)
  using 12-bit tables for long-range coulomb (src/kspace.cpp:342)
  G vector (1/distance) = 0.20327216
  grid = 16 16 16
  stencil order = 5
  estimated absolute RMS force accuracy = 0.031639896
  estimated relative force accuracy = 9.5282607e-05
  using double precision FFTW3
  3d grid and FFT values/proc = 2197 512
Generated 378 of 378 mixed pair_coeff terms from arithmetic mixing rule
Neighbor list info ...
  update: every = 1 steps, delay = 0 steps, check = yes
  max neighbors/atom: 2000, page size: 100000
  master list distance cutoff = 12
  ghost atom cutoff = 12
  binsize = 6, bins = 10 10 10
  1 neighbor lists, perpetual/occasional/extra = 1 0 0
  (1) pair lj/charmm/coul/long, perpetual
      attributes: half, newton on
      pair build: half/bin/newton
      stencil: half/bin/3d
      bin: standard
Per MPI rank memory allocation (min/avg/max) = 17.21 | 17.38 | 17.87 Mbytes
   Step          Temp          E_pair         E_mol          TotEng         Press     
         0   0             -3075.6498      943.91164     -2131.7381     -380.67776    
       241   0             -4503.3131      749.58665     -3753.7264     -29.045007    
Loop time of 1.08583 on 8 procs for 241 steps with 892 atoms

96.6% CPU use with 8 MPI tasks x no OpenMP threads

Minimization stats:
  Stopping criterion = energy tolerance
  Energy initial, next-to-last, final = 
     -2131.73812515172  -3753.43987001049  -3753.72640543997
  Force two-norm initial, final = 1086.2055 26.368744
  Force max component initial, final = 310.81136 3.9276356
  Final line search alpha, max atom move = 0.0059664947 0.023434217
  Iterations, force evaluations = 241 463

MPI task timing breakdown:
Section |  min time  |  avg time  |  max time  |%varavg| %total
---------------------------------------------------------------
Pair    | 0.083882   | 0.31688    | 0.70147    |  39.6 | 29.18
Bond    | 0.0076013  | 0.025742   | 0.06063    |  10.8 |  2.37
Kspace  | 0.25221    | 0.67229    | 0.92424    |  29.2 | 61.91
Neigh   | 0.019289   | 0.019398   | 0.019518   |   0.1 |  1.79
Comm    | 0.034892   | 0.038109   | 0.041257   |   1.1 |  3.51
Output  | 0          | 0          | 0          |   0.0 |  0.00
Modify  | 0          | 0          | 0          |   0.0 |  0.00
Other   |            | 0.01341    |            |       |  1.24

Nlocal:          111.5 ave         285 max          27 min
Histogram: 2 2 1 1 0 0 0 1 0 1
Nghost:            660 ave         709 max         579 min
Histogram: 1 0 0 0 2 1 0 0 3 1
Neighs:        18611.4 ave       44258 max        4887 min
Histogram: 3 1 1 0 0 0 2 0 0 1

Total # of neighbors = 148891
Ave neighs/atom = 166.91816
Ave special neighs/atom = 10.939462
Neighbor list builds = 15
Dangerous builds = 0
reset_timestep  0

# ------------- RUN ---------------

thermo          100
thermo_style    multi
timestep	8

run_style respa 3 2 8 bond 1 dihedral 2 pair 2 kspace 3
Respa levels:
  1 = bond angle
  2 = dihedral improper pair
  3 = kspace

velocity        all create 200.0 12345678 dist uniform
#dump            dump1 all atom 100 4pti.dump

fix             1 all nvt temp 200 300 25
fix             cor all filter/corotate m 1.0
  163 = # of size 2 clusters
  0 = # of size 3 clusters
  25 = # of size 4 clusters
  0 = # of size 5 clusters
  100 = # of frozen angles

run             1000

CITE-CITE-CITE-CITE-CITE-CITE-CITE-CITE-CITE-CITE-CITE-CITE-CITE

Your simulation uses code contributions which should be cited:

- Mollified Impulse Method with Corotational Filter: doi:10.1016/j.jcp.2016.12.024

@Article{Fath2017,
 Title ={A Fast Mollified Impulse Method for Biomolecular Atomistic Simulations},
 Author = {L. Fath and M. Hochbruck and C. V. Singh},
 Journal = {Journal of Computational Physics},
 Year = {2017},
 Pages = {180--198},
 Volume = {333},

 Doi = {https://doi.org/10.1016/j.jcp.2016.12.024},
 ISSN = {0021-9991},
 Keywords = {Mollified impulse method},
 Url = {https://www.sciencedirect.com/science/article/pii/S0021999116306787}
}

CITE-CITE-CITE-CITE-CITE-CITE-CITE-CITE-CITE-CITE-CITE-CITE-CITE

PPPM initialization ...
  using 12-bit tables for long-range coulomb (src/kspace.cpp:342)
  G vector (1/distance) = 0.20327216
  grid = 16 16 16
  stencil order = 5
  estimated absolute RMS force accuracy = 0.031639896
  estimated relative force accuracy = 9.5282607e-05
  using double precision FFTW3
  3d grid and FFT values/proc = 2197 512
Generated 378 of 378 mixed pair_coeff terms from arithmetic mixing rule
Per MPI rank memory allocation (min/avg/max) = 17.27 | 17.59 | 18.4 Mbytes
------------ Step              0 ----- CPU =            0 (sec) -------------
TotEng   =     -3220.3378 KinEng   =       531.1804 Temp     =       200.0000 
PotEng   =     -3751.5182 E_bond   =        42.2810 E_angle  =       345.2593 
E_dihed  =       337.8361 E_impro  =        24.2103 E_vdwl   =      -288.5339 
E_coul   =      -886.3622 E_long   =     -3326.2088 Press    =        83.2284
------------ Step            100 ----- CPU =     1.222411 (sec) -------------
TotEng   =     -2718.4266 KinEng   =       539.6247 Temp     =       203.1795 
PotEng   =     -3258.0513 E_bond   =       203.2306 E_angle  =       566.1888 
E_dihed  =       397.6756 E_impro  =        34.7695 E_vdwl   =      -248.6577 
E_coul   =      -874.8446 E_long   =     -3336.4134 Press    =       135.8653
------------ Step            200 ----- CPU =     2.463014 (sec) -------------
TotEng   =     -2662.0471 KinEng   =       625.0161 Temp     =       235.3310 
PotEng   =     -3287.0632 E_bond   =       208.1689 E_angle  =       590.8245 
E_dihed  =       389.1427 E_impro  =        30.5881 E_vdwl   =      -240.5401 
E_coul   =      -926.3100 E_long   =     -3338.9374 Press    =       103.4809
------------ Step            300 ----- CPU =     3.659917 (sec) -------------
TotEng   =     -2661.7839 KinEng   =       623.7262 Temp     =       234.8454 
PotEng   =     -3285.5101 E_bond   =       203.0372 E_angle  =       573.6435 
E_dihed  =       382.9393 E_impro  =        41.8967 E_vdwl   =      -218.1857 
E_coul   =      -926.9513 E_long   =     -3341.8898 Press    =        45.0510
------------ Step            400 ----- CPU =     4.845657 (sec) -------------
TotEng   =     -2629.8787 KinEng   =       649.2957 Temp     =       244.4728 
PotEng   =     -3279.1744 E_bond   =       190.8985 E_angle  =       609.0195 
E_dihed  =       409.3145 E_impro  =        43.5973 E_vdwl   =      -219.1033 
E_coul   =      -967.3394 E_long   =     -3345.5614 Press    =      -111.3389
------------ Step            500 ----- CPU =     5.993731 (sec) -------------
TotEng   =     -2615.7145 KinEng   =       656.5112 Temp     =       247.1896 
PotEng   =     -3272.2258 E_bond   =       231.6806 E_angle  =       572.7062 
E_dihed  =       379.4798 E_impro  =        39.4794 E_vdwl   =      -211.3545 
E_coul   =      -940.7792 E_long   =     -3343.4381 Press    =       176.3777
------------ Step            600 ----- CPU =     7.145526 (sec) -------------
TotEng   =     -2552.8350 KinEng   =       722.6216 Temp     =       272.0815 
PotEng   =     -3275.4567 E_bond   =       216.9414 E_angle  =       612.6641 
E_dihed  =       403.6530 E_impro  =        33.3518 E_vdwl   =      -204.3651 
E_coul   =      -995.1476 E_long   =     -3342.5543 Press    =        69.3187
------------ Step            700 ----- CPU =     8.343388 (sec) -------------
TotEng   =     -2502.5612 KinEng   =       738.4828 Temp     =       278.0535 
PotEng   =     -3241.0439 E_bond   =       238.4806 E_angle  =       623.7268 
E_dihed  =       397.0193 E_impro  =        41.9688 E_vdwl   =      -207.0788 
E_coul   =      -992.4856 E_long   =     -3342.6752 Press    =         8.0819
------------ Step            800 ----- CPU =     9.563701 (sec) -------------
TotEng   =     -2410.9430 KinEng   =       769.1707 Temp     =       289.6081 
PotEng   =     -3180.1136 E_bond   =       265.9413 E_angle  =       672.0238 
E_dihed  =       393.3801 E_impro  =        40.7623 E_vdwl   =      -213.8268 
E_coul   =      -999.8150 E_long   =     -3338.5792 Press    =        36.4553
------------ Step            900 ----- CPU =     10.71227 (sec) -------------
TotEng   =     -2422.6548 KinEng   =       766.5599 Temp     =       288.6251 
PotEng   =     -3189.2147 E_bond   =       255.4516 E_angle  =       678.1647 
E_dihed  =       389.2808 E_impro  =        38.7635 E_vdwl   =      -231.2358 
E_coul   =      -984.2208 E_long   =     -3335.4188 Press    =       104.1970
------------ Step           1000 ----- CPU =     11.80537 (sec) -------------
TotEng   =     -2349.3049 KinEng   =       830.8754 Temp     =       312.8412 
PotEng   =     -3180.1802 E_bond   =       236.6543 E_angle  =       666.2485 
E_dihed  =       394.1035 E_impro  =        40.3485 E_vdwl   =      -223.9660 
E_coul   =      -959.0381 E_long   =     -3334.5310 Press    =        32.1576
Loop time of 11.8055 on 8 procs for 1000 steps with 892 atoms

Performance: 58.549 ns/day, 0.410 hours/ns, 84.706 timesteps/s, 75.558 katom-step/s
97.1% CPU use with 8 MPI tasks x no OpenMP threads

MPI task timing breakdown:
Section |  min time  |  avg time  |  max time  |%varavg| %total
---------------------------------------------------------------
Pair    | 0.53601    | 3.5966     | 7.6519     | 134.2 | 30.47
Bond    | 0.092083   | 0.53023    | 1.1213     |  48.9 |  4.49
Kspace  | 0.57857    | 0.65317    | 0.71529    |   6.0 |  5.53
Neigh   | 0.23505    | 0.23801    | 0.24036    |   0.3 |  2.02
Comm    | 1.7498     | 6.4132     | 9.9352     | 114.7 | 54.32
Output  | 0.0010998  | 0.001154   | 0.001419   |   0.3 |  0.01
Modify  | 0.21976    | 0.30021    | 0.40214    |  11.8 |  2.54
Other   |            | 0.07293    |            |       |  0.62

Nlocal:          111.5 ave         241 max          12 min
Histogram: 1 2 0 1 1 1 0 0 1 1
Nghost:         640.25 ave         698 max         598 min
Histogram: 1 3 0 0 0 1 1 0 1 1
Neighs:        18564.9 ave       37011 max        2732 min
Histogram: 1 3 0 0 0 0 1 1 1 1

Total # of neighbors = 148519
Ave neighs/atom = 166.50112
Ave special neighs/atom = 10.939462
Neighbor list builds = 191
Dangerous builds = 0

unfix           cor
unfix           1

Total wall time: 0:00:12
