LAMMPS (4 Jan 2019)
# Solvated 5-mer peptide, run for 8ps in NVT

units           real
atom_style      full

pair_style      lj/charmm/coul/long 8.0 10.0 10.0
bond_style      harmonic
angle_style     charmm
dihedral_style  charmm
improper_style  harmonic
kspace_style    pppm 0.0001

read_data       data.peptide
  orthogonal box = (36.8402 41.0137 29.7681) to (64.2116 68.3851 57.1395)
  2 by 2 by 2 MPI processor grid
  reading atoms ...
  2004 atoms
  reading velocities ...
  2004 velocities
  scanning bonds ...
  3 = max bonds/atom
  scanning angles ...
  6 = max angles/atom
  scanning dihedrals ...
  14 = max dihedrals/atom
  scanning impropers ...
  1 = max impropers/atom
  reading bonds ...
  1365 bonds
  reading angles ...
  786 angles
  reading dihedrals ...
  207 dihedrals
  reading impropers ...
  12 impropers
  4 = max # of 1-2 neighbors
  7 = max # of 1-3 neighbors
  14 = max # of 1-4 neighbors
  18 = max # of special neighbors

neighbor        2.0 bin
neigh_modify    delay 5

thermo          50
#dump            dump1 all atom 100 peptide.dump

timestep        8

run_style respa 3 2 8 bond 1 dihedral 2 pair 2 kspace 3
Respa levels:
  1 = bond angle
  2 = dihedral improper pair
  3 = kspace

fix             1 all nvt temp 250.0 250.0 100.0 tchain 1
fix             cor all filter/corotate m 1.0
  19 = # of size 2 clusters
  0 = # of size 3 clusters
  3 = # of size 4 clusters
  0 = # of size 5 clusters
  646 = # of frozen angles
run             1000
PPPM initialization ...
  using 12-bit tables for long-range coulomb (../kspace.cpp:321)
  G vector (1/distance) = 0.268725
  grid = 15 15 15
  stencil order = 5
  estimated absolute RMS force accuracy = 0.0228209
  estimated relative force accuracy = 6.87243e-05
  using double precision FFTs
  3d grid and FFT values/proc = 2744 512
Neighbor list info ...
  update every 1 steps, delay 5 steps, check yes
  max neighbors/atom: 2000, page size: 100000
  master list distance cutoff = 12
  ghost atom cutoff = 12
  binsize = 6, bins = 5 5 5
  1 neighbor lists, perpetual/occasional/extra = 1 0 0
  (1) pair lj/charmm/coul/long, perpetual
      attributes: half, newton on
      pair build: half/bin/newton
      stencil: half/bin/3d/newton
      bin: standard
Per MPI rank memory allocation (min/avg/max) = 15.73 | 15.85 | 16.16 Mbytes
Step Temp E_pair E_mol TotEng Press 
       0     190.0857   -6442.7438    70.391457   -5237.4338    20361.984 
      50    239.47668   -7205.1006    1092.7665   -4682.5237   -23733.122 
     100    244.63958   -6788.1119    422.96283   -4904.5131    16457.806 
     150    238.35742   -7251.2856    966.48619   -4861.6716   -13404.153 
     200    251.47206   -6804.4028     588.5243   -4714.4488    10718.523 
     250    233.71526   -7246.1917    885.87081   -4964.9094   -9755.5322 
     300    255.41905   -6955.6033    630.55295   -4800.0549    7768.8518 
     350    246.70586   -7219.0637    863.47981   -4882.6112   -6192.0235 
     400    248.92789   -7130.2649    696.63331   -4947.3921    3441.9024 
     450    252.59056    -7269.447    813.89334   -4947.4459   -2497.7324 
     500    249.34433   -7170.9812    768.40278   -4913.8525    277.94528 
     550    252.11984   -7193.5095    807.34005   -4880.8722   -1792.7962 
     600    252.13394   -7171.9399    770.80577   -4895.7527   -11.945568 
     650    253.91029   -7235.0421    815.15825   -4903.8965   -857.66023 
     700    252.23406   -7207.6051     805.0629   -4896.5629   -903.59369 
     750     248.3386   -7236.1572    808.16726   -4945.2688    419.27122 
     800    251.01834    -7257.256    823.97957   -4934.5557   -1399.3636 
     850    254.38328   -7261.2508    831.06033   -4911.3792   -368.38522 
     900    236.81354   -7313.7522    832.65435   -5067.1878   -1327.5593 
     950    259.70847   -7238.1621    823.62878   -4863.9276    216.71451 
    1000    255.61067   -7372.5463    852.31478    -4994.092   -1437.2127 
Loop time of 25.0302 on 8 procs for 1000 steps with 2004 atoms

Performance: 27.615 ns/day, 0.869 hours/ns, 39.952 timesteps/s
98.6% CPU use with 8 MPI tasks x no OpenMP threads

MPI task timing breakdown:
Section |  min time  |  avg time  |  max time  |%varavg| %total
---------------------------------------------------------------
Pair    | 16.214     | 16.942     | 17.473     |  11.5 | 67.69
Bond    | 0.17009    | 0.21693    | 0.32275    |  13.4 |  0.87
Kspace  | 0.52969    | 0.53877    | 0.54436    |   0.6 |  2.15
Neigh   | 0.66451    | 0.66573    | 0.66662    |   0.1 |  2.66
Comm    | 5.5734     | 6.1634     | 6.9342     |  20.5 | 24.62
Output  | 0.00079547 | 0.00083723 | 0.0010363  |   0.0 |  0.00
Modify  | 0.39529    | 0.40152    | 0.41147    |   0.7 |  1.60
Other   |            | 0.1009     |            |       |  0.40

Nlocal:    250.5 ave 260 max 234 min
Histogram: 1 0 1 1 0 0 0 2 0 3
Nghost:    4982.38 ave 5026 max 4929 min
Histogram: 1 0 0 1 1 2 1 0 1 1
Neighs:    88451.5 ave 93448 max 80640 min
Histogram: 2 0 0 0 0 0 2 0 3 1

Total # of neighbors = 707612
Ave neighs/atom = 353.1
Ave special neighs/atom = 2.34032
Neighbor list builds = 200
Dangerous builds = 200
unfix           cor
unfix           1




Please see the log.cite file for references relevant to this simulation

Total wall time: 0:00:25
