LAMMPS (5 May 2020)
# Solvated 5-mer peptide, run for 8ps in NVT

units           real
atom_style      full

pair_style      lj/charmm/coul/long 8.0 10.0 10.0
bond_style      harmonic
angle_style     charmm
dihedral_style  charmm
improper_style  harmonic
kspace_style    pppm 0.0001

read_data       data.peptide
  orthogonal box = (36.8402 41.0137 29.7681) to (64.2116 68.3851 57.1395)
  2 by 2 by 2 MPI processor grid
  reading atoms ...
  2004 atoms
  reading velocities ...
  2004 velocities
  scanning bonds ...
  3 = max bonds/atom
  scanning angles ...
  6 = max angles/atom
  scanning dihedrals ...
  14 = max dihedrals/atom
  scanning impropers ...
  1 = max impropers/atom
  reading bonds ...
  1365 bonds
  reading angles ...
  786 angles
  reading dihedrals ...
  207 dihedrals
  reading impropers ...
  12 impropers
  4 = max # of 1-2 neighbors
  7 = max # of 1-3 neighbors
  14 = max # of 1-4 neighbors
  18 = max # of special neighbors
  special bonds CPU = 0.000516569 secs
  read_data CPU = 0.0148743 secs

neighbor        2.0 bin
neigh_modify    delay 5

thermo          50
#dump            dump1 all atom 100 peptide.dump

timestep        8

run_style respa 3 2 8 bond 1 dihedral 2 pair 2 kspace 3
Respa levels:
  1 = bond angle
  2 = dihedral improper pair
  3 = kspace

fix             1 all nvt temp 250.0 250.0 100.0 tchain 1
fix             cor all filter/corotate m 1.0
  19 = # of size 2 clusters
  0 = # of size 3 clusters
  3 = # of size 4 clusters
  0 = # of size 5 clusters
  646 = # of frozen angles
run             1000
PPPM initialization ...
  using 12-bit tables for long-range coulomb (src/kspace.cpp:332)
  G vector (1/distance) = 0.268725
  grid = 15 15 15
  stencil order = 5
  estimated absolute RMS force accuracy = 0.0228209
  estimated relative force accuracy = 6.87243e-05
  using double precision FFTW3
  3d grid and FFT values/proc = 2744 512
Neighbor list info ...
  update every 1 steps, delay 5 steps, check yes
  max neighbors/atom: 2000, page size: 100000
  master list distance cutoff = 12
  ghost atom cutoff = 12
  binsize = 6, bins = 5 5 5
  1 neighbor lists, perpetual/occasional/extra = 1 0 0
  (1) pair lj/charmm/coul/long, perpetual
      attributes: half, newton on
      pair build: half/bin/newton
      stencil: half/bin/3d/newton
      bin: standard
Per MPI rank memory allocation (min/avg/max) = 16.09 | 16.22 | 16.52 Mbytes
Step Temp E_pair E_mol TotEng Press 
       0     190.0857   -6442.7438    70.391457   -5237.4338    20361.984 
      50    239.47667   -7205.1006    1092.7665   -4682.5237   -23733.122 
     100    244.64402   -6788.1332    422.96217   -4904.5086    16457.884 
     150    238.46885   -7251.3361    967.70568   -4859.8373   -13454.086 
     200    252.63068   -6885.7451    597.79091    -4779.607    10510.276 
     250    243.67346   -7265.5766    889.56494    -4921.144   -9099.2847 
     300    253.95082    -7015.107    666.51139   -4832.3663     5735.843 
     350    247.85971   -7236.2921    814.94319    -4941.487   -5315.3656 
     400    245.90954   -7088.7531    705.21675    -4915.318    4651.9904 
     450     241.2625   -7276.3609    806.74554   -5029.1425   -3384.5778 
     500    248.30919   -7167.0815    766.93713   -4917.5988    1469.3647 
     550    251.45516   -7217.6278    805.62419   -4910.6748   -1609.0295 
     600    251.04514   -7305.7778    821.34645   -4985.5507   -57.645315 
     650    252.12855   -7267.3743    834.93875   -4927.0863    57.164113 
     700    249.40253   -7339.2236    849.38416    -5000.766   -869.87584 
     750    250.76749   -7260.9387    800.85134   -4962.8644    1151.4551 
     800    258.24924    -7364.781    860.77913   -4962.1086   -3005.5504 
     850    258.31311   -7261.4859     799.5592   -4919.6521   -56.943765 
     900    248.78944   -7338.9935    816.62167   -5036.9589    -590.1771 
     950    245.10723   -7335.9223    854.26325    -5018.231   -897.43464 
    1000    251.17472   -7344.6273    859.01835   -4985.9546   -758.82491 
Loop time of 26.9102 on 8 procs for 1000 steps with 2004 atoms

Performance: 25.685 ns/day, 0.934 hours/ns, 37.161 timesteps/s
85.1% CPU use with 8 MPI tasks x no OpenMP threads

MPI task timing breakdown:
Section |  min time  |  avg time  |  max time  |%varavg| %total
---------------------------------------------------------------
Pair    | 11.561     | 16.064     | 20.827     |  95.8 | 59.70
Bond    | 0.1446     | 0.24592    | 0.41675    |  18.4 |  0.91
Kspace  | 0.45782    | 0.51964    | 0.58713    |   7.1 |  1.93
Neigh   | 0.78675    | 0.79139    | 0.79865    |   0.5 |  2.94
Comm    | 3.5951     | 8.4556     | 13.144     | 136.5 | 31.42
Output  | 0.00073153 | 0.00079648 | 0.0010482  |   0.0 |  0.00
Modify  | 0.48956    | 0.57967    | 0.66204    |   9.2 |  2.15
Other   |            | 0.2528     |            |       |  0.94

Nlocal:    250.5 ave 260 max 242 min
Histogram: 2 1 0 0 0 2 1 0 0 2
Nghost:    4963.12 ave 5045 max 4901 min
Histogram: 2 0 2 0 1 1 0 0 1 1
Neighs:    88519.1 ave 93706 max 83148 min
Histogram: 1 0 2 0 0 1 2 1 0 1

Total # of neighbors = 708153
Ave neighs/atom = 353.37
Ave special neighs/atom = 2.34032
Neighbor list builds = 200
Dangerous builds = 200
unfix           cor
unfix           1




Please see the log.cite file for references relevant to this simulation

Total wall time: 0:00:26
