LAMMPS (29 Aug 2024 - Development - f820c928a)
# Solvated 5-mer peptide, run for 8ps in NVT

units           real
atom_style      full

pair_style      lj/charmm/coul/long 8.0 10.0 10.0
bond_style      harmonic
angle_style     charmm
dihedral_style  charmm
improper_style  harmonic
kspace_style    pppm 0.0001

read_data       data.peptide
Reading data file ...
  orthogonal box = (36.840194 41.013691 29.768095) to (64.21156 68.385058 57.139462)
  2 by 2 by 2 MPI processor grid
  reading atoms ...
  2004 atoms
  reading velocities ...
  2004 velocities
  scanning bonds ...
  3 = max bonds/atom
  scanning angles ...
  6 = max angles/atom
  scanning dihedrals ...
  14 = max dihedrals/atom
  scanning impropers ...
  1 = max impropers/atom
  orthogonal box = (36.840194 41.013691 29.768095) to (64.21156 68.385058 57.139462)
  2 by 2 by 2 MPI processor grid
  reading bonds ...
  1365 bonds
  reading angles ...
  786 angles
  reading dihedrals ...
  207 dihedrals
  reading impropers ...
  12 impropers
Finding 1-2 1-3 1-4 neighbors ...
  special bond factors lj:    0        0        0       
  special bond factors coul:  0        0        0       
     4 = max # of 1-2 neighbors
     7 = max # of 1-3 neighbors
    14 = max # of 1-4 neighbors
    18 = max # of special neighbors
  special bonds CPU = 0.001 seconds
  read_data CPU = 0.045 seconds

neighbor        2.0 bin
neigh_modify    delay 5

thermo          50
#dump            dump1 all atom 100 peptide.dump

timestep        8

run_style respa 3 2 8 bond 1 dihedral 2 pair 2 kspace 3
Respa levels:
  1 = bond angle
  2 = dihedral improper pair
  3 = kspace

fix             1 all nvt temp 250.0 250.0 100.0 tchain 1
fix             cor all filter/corotate m 1.0
  19 = # of size 2 clusters
  0 = # of size 3 clusters
  3 = # of size 4 clusters
  0 = # of size 5 clusters
  646 = # of frozen angles
run             1000

CITE-CITE-CITE-CITE-CITE-CITE-CITE-CITE-CITE-CITE-CITE-CITE-CITE

Your simulation uses code contributions which should be cited:

- Type Label Framework: https://doi.org/10.1021/acs.jpcb.3c08419

@Article{Gissinger24,
 author = {Jacob R. Gissinger, Ilia Nikiforov, Yaser Afshar, Brendon Waters, Moon-ki Choi, Daniel S. Karls, Alexander Stukowski, Wonpil Im, Hendrik Heinz, Axel Kohlmeyer, and Ellad B. Tadmor},
 title = {Type Label Framework for Bonded Force Fields in LAMMPS},
 journal = {J. Phys. Chem. B},
 year =    2024,
 volume =  128,
 number =  13,
 pages =   {3282--3297}
}

- Mollified Impulse Method with Corotational Filter: doi:10.1016/j.jcp.2016.12.024

@Article{Fath2017,
 Title ={A Fast Mollified Impulse Method for Biomolecular Atomistic Simulations},
 Author = {L. Fath and M. Hochbruck and C. V. Singh},
 Journal = {Journal of Computational Physics},
 Year = {2017},
 Pages = {180--198},
 Volume = {333},

 Doi = {https://doi.org/10.1016/j.jcp.2016.12.024},
 ISSN = {0021-9991},
 Keywords = {Mollified impulse method},
 Url = {https://www.sciencedirect.com/science/article/pii/S0021999116306787}
}

CITE-CITE-CITE-CITE-CITE-CITE-CITE-CITE-CITE-CITE-CITE-CITE-CITE

PPPM initialization ...
  using 12-bit tables for long-range coulomb (src/kspace.cpp:342)
  G vector (1/distance) = 0.26872465
  grid = 15 15 15
  stencil order = 5
  estimated absolute RMS force accuracy = 0.022820853
  estimated relative force accuracy = 6.872432e-05
  using double precision FFTW3
  3d grid and FFT values/proc = 2744 512
Generated 91 of 91 mixed pair_coeff terms from arithmetic mixing rule
Neighbor list info ...
  update: every = 1 steps, delay = 5 steps, check = yes
  max neighbors/atom: 2000, page size: 100000
  master list distance cutoff = 12
  ghost atom cutoff = 12
  binsize = 6, bins = 5 5 5
  1 neighbor lists, perpetual/occasional/extra = 1 0 0
  (1) pair lj/charmm/coul/long, perpetual
      attributes: half, newton on
      pair build: half/bin/newton
      stencil: half/bin/3d
      bin: standard
Per MPI rank memory allocation (min/avg/max) = 16.09 | 16.22 | 16.52 Mbytes
   Step          Temp          E_pair         E_mol          TotEng         Press     
         0   190.0857      -6442.7438      70.391457     -5237.4338      20361.984    
        50   239.47667     -7205.1006      1092.7664     -4682.5237     -23733.122    
       100   244.64449     -6788.1339      422.96056     -4904.5081      16457.952    
       150   238.2623      -7251.6482      968.00405     -4861.0841     -13349.01     
       200   245.5502      -6839.0603      601.57993     -4771.4076      11018.752    
       250   242.93418     -7249.7866      884.64393     -4914.6889     -9385.5973    
       300   251.81821     -7021.434       644.39377     -4873.5438      6969.5833    
       350   255.55965     -7262.4059      854.35051     -4882.2205     -5736.4888    
       400   252.26429     -7089.5933      672.90306     -4910.5305      4457.6981    
       450   250.242       -7219.628       862.51228     -4863.0302     -4161.8627    
       500   245.77263     -7162.7383      713.64827     -4981.6892      2423.082     
       550   246.72911     -7191.0292      817.58328     -4900.3344     -1580.7528    
       600   255.20394     -7221.7283      754.03178     -4943.9855      378.54091    
       650   251.54072     -7254.538       795.38024     -4957.3181     -2100.4211    
       700   247.71449     -7270.9947      821.87067     -4970.1292     -1109.4614    
       750   245.76391     -7245.2655      818.55091     -4959.3658     -1076.8446    
       800   246.21778     -7285.248       806.18357     -5009.0058     -454.48817    
       850   255.89202     -7285.3193      797.59728     -4959.9027     -1100.5408    
       900   251.65345     -7332.5544      819.05797     -5010.9838      472.5315     
       950   244.64638     -7329.8278      892.00581     -4977.1455     -806.09723    
      1000   248.83536     -7293.9076      841.93659     -4966.2839     -771.36601    
Loop time of 26.4995 on 8 procs for 1000 steps with 2004 atoms

Performance: 26.084 ns/day, 0.920 hours/ns, 37.737 timesteps/s, 75.624 katom-step/s
92.7% CPU use with 8 MPI tasks x no OpenMP threads

MPI task timing breakdown:
Section |  min time  |  avg time  |  max time  |%varavg| %total
---------------------------------------------------------------
Pair    | 17.086     | 17.74      | 18.221     |   9.1 | 66.94
Bond    | 0.1585     | 0.2073     | 0.33638    |  14.9 |  0.78
Kspace  | 0.49266    | 0.50581    | 0.51766    |   1.0 |  1.91
Neigh   | 0.91682    | 0.91749    | 0.91817    |   0.0 |  3.46
Comm    | 5.3842     | 6.0159     | 6.6803     |  18.0 | 22.70
Output  | 0.0011533  | 0.001246   | 0.0018254  |   0.6 |  0.00
Modify  | 0.52662    | 0.54199    | 0.55595    |   1.3 |  2.05
Other   |            | 0.57       |            |       |  2.15

Nlocal:          250.5 ave         272 max         240 min
Histogram: 2 1 1 2 1 0 0 0 0 1
Nghost:        4953.75 ave        4997 max        4898 min
Histogram: 1 1 1 1 0 0 0 1 0 3
Neighs:        88534.9 ave       97889 max       82023 min
Histogram: 1 0 1 3 1 1 0 0 0 1

Total # of neighbors = 708279
Ave neighs/atom = 353.43263
Ave special neighs/atom = 2.3403194
Neighbor list builds = 200
Dangerous builds = 200
unfix           cor
unfix           1



Total wall time: 0:00:26
