LAMMPS (17 Feb 2022)
# Solvated 5-mer peptide, run for 8ps in NVT

units           real
atom_style      full

pair_style      lj/charmm/coul/long 8.0 10.0 10.0
bond_style      harmonic
angle_style     charmm
dihedral_style  charmm
improper_style  harmonic
kspace_style    pppm 0.0001

read_data       data.peptide
Reading data file ...
  orthogonal box = (36.840194 41.013691 29.768095) to (64.21156 68.385058 57.139462)
  2 by 2 by 2 MPI processor grid
  reading atoms ...
  2004 atoms
  reading velocities ...
  2004 velocities
  scanning bonds ...
  3 = max bonds/atom
  scanning angles ...
  6 = max angles/atom
  scanning dihedrals ...
  14 = max dihedrals/atom
  scanning impropers ...
  1 = max impropers/atom
  reading bonds ...
  1365 bonds
  reading angles ...
  786 angles
  reading dihedrals ...
  207 dihedrals
  reading impropers ...
  12 impropers
Finding 1-2 1-3 1-4 neighbors ...
  special bond factors lj:    0        0        0       
  special bond factors coul:  0        0        0       
     4 = max # of 1-2 neighbors
     7 = max # of 1-3 neighbors
    14 = max # of 1-4 neighbors
    18 = max # of special neighbors
  special bonds CPU = 0.052 seconds
  read_data CPU = 0.433 seconds

neighbor        2.0 bin
neigh_modify    delay 5

thermo          50
#dump            dump1 all atom 100 peptide.dump

timestep        8

run_style respa 3 2 8 bond 1 dihedral 2 pair 2 kspace 3
Respa levels:
  1 = bond angle
  2 = dihedral improper pair
  3 = kspace

fix             1 all nvt temp 250.0 250.0 100.0 tchain 1
fix             cor all filter/corotate m 1.0
  19 = # of size 2 clusters
  0 = # of size 3 clusters
  3 = # of size 4 clusters
  0 = # of size 5 clusters
  646 = # of frozen angles
run             1000

CITE-CITE-CITE-CITE-CITE-CITE-CITE-CITE-CITE-CITE-CITE-CITE-CITE

Your simulation uses code contributions which should be cited:

- Mollified Impulse Method with Corotational Filter:

@Article{Fath2017,
 Title ={A fast mollified impulse method for biomolecular atomistic simulations},
 Author = {L. Fath and M. Hochbruck and C.V. Singh},
 Journal = {Journal of Computational Physics},
 Year = {2017},
 Pages = {180 - 198},
 Volume = {333},

 Doi = {https://doi.org/10.1016/j.jcp.2016.12.024},
 ISSN = {0021-9991},
 Keywords = {Mollified impulse method},
 Url = {https://www.sciencedirect.com/science/article/pii/S0021999116306787}
}

CITE-CITE-CITE-CITE-CITE-CITE-CITE-CITE-CITE-CITE-CITE-CITE-CITE

PPPM initialization ...
  using 12-bit tables for long-range coulomb (src/kspace.cpp:340)
  G vector (1/distance) = 0.26872465
  grid = 15 15 15
  stencil order = 5
  estimated absolute RMS force accuracy = 0.022820853
  estimated relative force accuracy = 6.872432e-05
  using double precision FFTW3
  3d grid and FFT values/proc = 2744 512
  generated 91 of 91 mixed pair_coeff terms from arithmetic mixing rule
Neighbor list info ...
  update every 1 steps, delay 5 steps, check yes
  max neighbors/atom: 2000, page size: 100000
  master list distance cutoff = 12
  ghost atom cutoff = 12
  binsize = 6, bins = 5 5 5
  1 neighbor lists, perpetual/occasional/extra = 1 0 0
  (1) pair lj/charmm/coul/long, perpetual
      attributes: half, newton on
      pair build: half/bin/newton
      stencil: half/bin/3d
      bin: standard
Per MPI rank memory allocation (min/avg/max) = 16.09 | 16.22 | 16.52 Mbytes
Step Temp E_pair E_mol TotEng Press 
       0     190.0857   -6442.7438    70.391457   -5237.4338    20361.984 
      50    239.47667   -7205.1005    1092.7664   -4682.5237   -23733.122 
     100    244.64181   -6788.1281    422.96662   -4904.5122    16457.897 
     150     238.9772   -7255.7854    968.06856   -4860.8885   -13485.065 
     200    250.38495   -6835.4046    591.63135   -4748.8342    10249.808 
     250    241.52387    -7242.924    868.98837   -4931.9023   -9000.3299 
     300    250.07033   -6982.9943    659.88269    -4830.051    4914.1824 
     350    242.84031   -7195.8423    812.56889   -4933.3801   -5404.0907 
     400    253.36778   -7025.8827    660.85506   -4852.2795    4264.6102 
     450    253.45334   -7159.2228    791.56703   -4854.3968   -4048.0929 
     500    244.83105    -7132.091    753.34701   -4916.9649    889.60402 
     550    254.47513   -7238.6994     813.0575   -4906.2823   -1655.2703 
     600    247.10169   -7218.7751     789.9164   -4953.5227     1000.727 
     650    251.42607    -7222.631    827.11995   -4894.3561   -1548.4479 
     700    242.23671   -7196.0909    778.35337    -4971.448    58.524369 
     750    253.15734   -7205.2652    797.81633   -4895.9571   -1807.9172 
     800    256.59109   -7248.5483    812.74582   -4903.8094   -1151.3329 
     850    251.30969   -7254.3409    837.01738   -4916.8633    68.721659 
     900    242.21773   -7227.5382    823.65435   -4957.7078   -523.38123 
     950    250.82121   -7291.4751    806.42272   -4987.5086   -320.40449 
    1000    246.84781   -7262.7336    832.16392   -4956.7494   -1935.2848 
Loop time of 171.331 on 8 procs for 1000 steps with 2004 atoms

Performance: 4.034 ns/day, 5.949 hours/ns, 5.837 timesteps/s
81.7% CPU use with 8 MPI tasks x no OpenMP threads

MPI task timing breakdown:
Section |  min time  |  avg time  |  max time  |%varavg| %total
---------------------------------------------------------------
Pair    | 27.652     | 31.379     | 35.13      |  52.9 | 18.31
Bond    | 0.37647    | 0.50298    | 0.73063    |  20.3 |  0.29
Kspace  | 11.56      | 12.39      | 13.22      |  19.9 |  7.23
Neigh   | 4.2598     | 4.2772     | 4.3039     |   0.8 |  2.50
Comm    | 115.65     | 118.64     | 121.89     |  21.9 | 69.25
Output  | 0.029844   | 0.04051    | 0.068206   |   5.4 |  0.02
Modify  | 3.1464     | 3.2627     | 3.4035     |   3.9 |  1.90
Other   |            | 0.8389     |            |       |  0.49

Nlocal:          250.5 ave         263 max         242 min
Histogram: 2 1 1 0 1 1 0 1 0 1
Nghost:        4988.88 ave        5073 max        4935 min
Histogram: 1 1 1 3 0 0 0 1 0 1
Neighs:        88430.1 ave       92416 max       85277 min
Histogram: 3 0 0 1 1 0 0 0 2 1

Total # of neighbors = 707441
Ave neighs/atom = 353.01447
Ave special neighs/atom = 2.3403194
Neighbor list builds = 200
Dangerous builds = 200
unfix           cor
unfix           1



Total wall time: 0:02:51
