LAMMPS (5 May 2020)

units           real

atom_style      full
bond_style      harmonic
angle_style     charmm
dihedral_style  charmm
improper_style  harmonic

pair_style      lj/charmm/coul/long 8 10
pair_modify     mix arithmetic
kspace_style    pppm 1e-4

read_data       data.bpti
  orthogonal box = (-10 -10 -30) to (50 50 30)
  2 by 2 by 2 MPI processor grid
  reading atoms ...
  892 atoms
  scanning bonds ...
  4 = max bonds/atom
  scanning angles ...
  6 = max angles/atom
  scanning dihedrals ...
  18 = max dihedrals/atom
  scanning impropers ...
  2 = max impropers/atom
  reading bonds ...
  906 bonds
  reading angles ...
  1626 angles
  reading dihedrals ...
  2501 dihedrals
  reading impropers ...
  137 impropers
  4 = max # of 1-2 neighbors
  9 = max # of 1-3 neighbors
  19 = max # of 1-4 neighbors
  21 = max # of special neighbors
  special bonds CPU = 0.000607378 secs
  read_data CPU = 0.0189879 secs

special_bonds   charmm
neigh_modify    delay 2 every 1


# ------------- MINIMIZE ----------

minimize 	1e-4 1e-6 1000 10000
WARNING: Using 'neigh_modify every 1 delay 0 check yes' setting during minimization (src/min.cpp:190)
PPPM initialization ...
WARNING: System is not charge neutral, net charge = 6 (src/kspace.cpp:313)
  using 12-bit tables for long-range coulomb (src/kspace.cpp:332)
  G vector (1/distance) = 0.203272
  grid = 16 16 16
  stencil order = 5
  estimated absolute RMS force accuracy = 0.0316399
  estimated relative force accuracy = 9.52826e-05
  using double precision FFTW3
  3d grid and FFT values/proc = 2197 512
Neighbor list info ...
  update every 1 steps, delay 0 steps, check yes
  max neighbors/atom: 2000, page size: 100000
  master list distance cutoff = 12
  ghost atom cutoff = 12
  binsize = 6, bins = 10 10 10
  1 neighbor lists, perpetual/occasional/extra = 1 0 0
  (1) pair lj/charmm/coul/long, perpetual
      attributes: half, newton on
      pair build: half/bin/newton
      stencil: half/bin/3d/newton
      bin: standard
Per MPI rank memory allocation (min/avg/max) = 17.21 | 17.38 | 17.87 Mbytes
Step Temp E_pair E_mol TotEng Press 
       0            0   -3075.6498    943.91164   -2131.7381   -380.67776 
     241            0    -4503.313    749.58664   -3753.7264   -29.044999 
Loop time of 0.827028 on 8 procs for 241 steps with 892 atoms

75.5% CPU use with 8 MPI tasks x no OpenMP threads

Minimization stats:
  Stopping criterion = energy tolerance
  Energy initial, next-to-last, final = 
        -2131.73812515     -3753.43987387     -3753.72639343
  Force two-norm initial, final = 1086.21 26.3688
  Force max component initial, final = 310.811 3.92764
  Final line search alpha, max atom move = 0.00596649 0.0234342
  Iterations, force evaluations = 241 463

MPI task timing breakdown:
Section |  min time  |  avg time  |  max time  |%varavg| %total
---------------------------------------------------------------
Pair    | 0.073414   | 0.25668    | 0.56947    |  35.4 | 31.04
Bond    | 0.008264   | 0.023631   | 0.04919    |   9.5 |  2.86
Kspace  | 0.16772    | 0.49536    | 0.68976    |  27.4 | 59.90
Neigh   | 0.015641   | 0.0157     | 0.015784   |   0.0 |  1.90
Comm    | 0.022137   | 0.02487    | 0.027475   |   1.1 |  3.01
Output  | 0          | 0          | 0          |   0.0 |  0.00
Modify  | 0          | 0          | 0          |   0.0 |  0.00
Other   |            | 0.01079    |            |       |  1.30

Nlocal:    111.5 ave 285 max 27 min
Histogram: 2 2 1 1 0 0 0 1 0 1
Nghost:    660 ave 709 max 579 min
Histogram: 1 0 0 0 2 1 0 0 3 1
Neighs:    18611.4 ave 44258 max 4887 min
Histogram: 3 1 1 0 0 0 2 0 0 1

Total # of neighbors = 148891
Ave neighs/atom = 166.918
Ave special neighs/atom = 10.9395
Neighbor list builds = 15
Dangerous builds = 0
reset_timestep  0

# ------------- RUN ---------------

thermo          100
thermo_style    multi
timestep	8

run_style respa 3 2 8 bond 1 dihedral 2 pair 2 kspace 3
Respa levels:
  1 = bond angle
  2 = dihedral improper pair
  3 = kspace

velocity        all create 200.0 12345678 dist uniform
#dump            dump1 all atom 100 4pti.dump

fix             1 all nvt temp 200 300 25
fix             cor all filter/corotate m 1.0
  163 = # of size 2 clusters
  0 = # of size 3 clusters
  25 = # of size 4 clusters
  0 = # of size 5 clusters
  100 = # of frozen angles

run             1000
PPPM initialization ...
  using 12-bit tables for long-range coulomb (src/kspace.cpp:332)
  G vector (1/distance) = 0.203272
  grid = 16 16 16
  stencil order = 5
  estimated absolute RMS force accuracy = 0.0316399
  estimated relative force accuracy = 9.52826e-05
  using double precision FFTW3
  3d grid and FFT values/proc = 2197 512
Per MPI rank memory allocation (min/avg/max) = 17.27 | 17.59 | 18.4 Mbytes
---------------- Step        0 ----- CPU =      0.0000 (sec) ----------------
TotEng   =     -3220.3378 KinEng   =       531.1804 Temp     =       200.0000 
PotEng   =     -3751.5182 E_bond   =        42.2810 E_angle  =       345.2593 
E_dihed  =       337.8361 E_impro  =        24.2103 E_vdwl   =      -288.5339 
E_coul   =      -886.3622 E_long   =     -3326.2088 Press    =        83.2284 
---------------- Step      100 ----- CPU =      0.9428 (sec) ----------------
TotEng   =     -2718.4265 KinEng   =       539.6247 Temp     =       203.1795 
PotEng   =     -3258.0512 E_bond   =       203.2306 E_angle  =       566.1889 
E_dihed  =       397.6756 E_impro  =        34.7695 E_vdwl   =      -248.6578 
E_coul   =      -874.8446 E_long   =     -3336.4134 Press    =       135.8653 
---------------- Step      200 ----- CPU =      1.8764 (sec) ----------------
TotEng   =     -2662.0425 KinEng   =       625.0190 Temp     =       235.3321 
PotEng   =     -3287.0614 E_bond   =       208.1694 E_angle  =       590.8252 
E_dihed  =       389.1430 E_impro  =        30.5883 E_vdwl   =      -240.5400 
E_coul   =      -926.3101 E_long   =     -3338.9372 Press    =       103.4814 
---------------- Step      300 ----- CPU =      2.7820 (sec) ----------------
TotEng   =     -2661.6528 KinEng   =       623.6670 Temp     =       234.8231 
PotEng   =     -3285.3198 E_bond   =       202.9519 E_angle  =       573.4971 
E_dihed  =       381.7454 E_impro  =        41.9050 E_vdwl   =      -218.9150 
E_coul   =      -924.6425 E_long   =     -3341.8617 Press    =        44.0535 
---------------- Step      400 ----- CPU =      3.7707 (sec) ----------------
TotEng   =     -2602.3637 KinEng   =       658.8808 Temp     =       248.0818 
PotEng   =     -3261.2445 E_bond   =       196.3805 E_angle  =       620.7515 
E_dihed  =       411.3516 E_impro  =        43.3609 E_vdwl   =      -219.0639 
E_coul   =      -968.1889 E_long   =     -3345.8362 Press    =      -108.2152 
---------------- Step      500 ----- CPU =      4.7021 (sec) ----------------
TotEng   =     -2576.8300 KinEng   =       663.3393 Temp     =       249.7605 
PotEng   =     -3240.1693 E_bond   =       246.7991 E_angle  =       593.1069 
E_dihed  =       398.7396 E_impro  =        39.7533 E_vdwl   =      -193.5461 
E_coul   =      -983.2350 E_long   =     -3341.7870 Press    =       248.0483 
---------------- Step      600 ----- CPU =      5.6133 (sec) ----------------
TotEng   =     -2524.6955 KinEng   =       698.6265 Temp     =       263.0468 
PotEng   =     -3223.3221 E_bond   =       237.0779 E_angle  =       620.2959 
E_dihed  =       402.4801 E_impro  =        45.6663 E_vdwl   =      -205.0058 
E_coul   =      -987.4972 E_long   =     -3336.3392 Press    =       -42.7841 
---------------- Step      700 ----- CPU =      6.4991 (sec) ----------------
TotEng   =     -2496.6865 KinEng   =       672.3791 Temp     =       253.1642 
PotEng   =     -3169.0657 E_bond   =       252.8257 E_angle  =       664.7134 
E_dihed  =       405.0427 E_impro  =        38.7388 E_vdwl   =      -213.1473 
E_coul   =      -969.9459 E_long   =     -3347.2930 Press    =        64.5891 
---------------- Step      800 ----- CPU =      7.3892 (sec) ----------------
TotEng   =     -2432.9234 KinEng   =       742.6815 Temp     =       279.6344 
PotEng   =     -3175.6049 E_bond   =       256.4258 E_angle  =       676.6092 
E_dihed  =       393.1171 E_impro  =        33.8222 E_vdwl   =      -213.2547 
E_coul   =      -975.6032 E_long   =     -3346.7214 Press    =        22.8880 
---------------- Step      900 ----- CPU =      8.2647 (sec) ----------------
TotEng   =     -2390.6927 KinEng   =       771.3245 Temp     =       290.4190 
PotEng   =     -3162.0171 E_bond   =       264.5543 E_angle  =       691.4959 
E_dihed  =       427.6049 E_impro  =        42.2086 E_vdwl   =      -183.4163 
E_coul   =     -1053.6610 E_long   =     -3350.8037 Press    =        70.0546 
---------------- Step     1000 ----- CPU =      9.1446 (sec) ----------------
TotEng   =     -2287.9378 KinEng   =       807.5545 Temp     =       304.0604 
PotEng   =     -3095.4923 E_bond   =       283.5381 E_angle  =       701.5817 
E_dihed  =       422.0981 E_impro  =        54.4398 E_vdwl   =      -222.3702 
E_coul   =      -985.8913 E_long   =     -3348.8886 Press    =         4.5541 
Loop time of 9.14463 on 8 procs for 1000 steps with 892 atoms

Performance: 75.585 ns/day, 0.318 hours/ns, 109.354 timesteps/s
75.9% CPU use with 8 MPI tasks x no OpenMP threads

MPI task timing breakdown:
Section |  min time  |  avg time  |  max time  |%varavg| %total
---------------------------------------------------------------
Pair    | 0.59042    | 3.1567     | 6.5147     | 120.8 | 34.52
Bond    | 0.10091    | 0.49667    | 0.87844    |  40.3 |  5.43
Kspace  | 0.34491    | 0.39214    | 0.4403     |   5.3 |  4.29
Neigh   | 0.18676    | 0.18887    | 0.19078    |   0.3 |  2.07
Comm    | 1.0197     | 4.6584     | 7.6431     | 112.6 | 50.94
Output  | 0.00057002 | 0.00060819 | 0.00079855 |   0.0 |  0.01
Modify  | 0.14153    | 0.2074     | 0.2736     |  10.8 |  2.27
Other   |            | 0.04388    |            |       |  0.48

Nlocal:    111.5 ave 239 max 9 min
Histogram: 1 1 1 1 1 1 0 0 1 1
Nghost:    641.25 ave 692 max 594 min
Histogram: 1 1 2 0 0 1 0 1 0 2
Neighs:    17744.6 ave 32912 max 2031 min
Histogram: 1 1 2 0 0 0 1 0 1 2

Total # of neighbors = 141957
Ave neighs/atom = 159.145
Ave special neighs/atom = 10.9395
Neighbor list builds = 193
Dangerous builds = 0

unfix           cor
unfix           1


Please see the log.cite file for references relevant to this simulation

Total wall time: 0:00:10
