LAMMPS (2 Jul 2021)
# REAX potential for CHO system
# .....

units		real

atom_style	charge
read_data	data.CHO
Reading data file ...
  orthogonal box = (0.0000000 0.0000000 0.0000000) to (25.000000 25.000000 25.000000)
  2 by 2 by 2 MPI processor grid
  reading atoms ...
  105 atoms
  read_data CPU = 0.203 seconds

pair_style	reax/c lmp_control
WARNING: Ignoring inactive control parameter: simulation_name (src/REAXFF/reaxff_control.cpp:97)
WARNING: Ignoring inactive control parameter: energy_update_freq (src/REAXFF/reaxff_control.cpp:97)
WARNING: Support for writing native trajectories has been removed after LAMMPS version 8 April 2021 (src/REAXFF/reaxff_control.cpp:113)
WARNING: Ignoring inactive control parameter: traj_title (src/REAXFF/reaxff_control.cpp:97)
WARNING: Ignoring inactive control parameter: atom_info (src/REAXFF/reaxff_control.cpp:97)
WARNING: Ignoring inactive control parameter: atom_forces (src/REAXFF/reaxff_control.cpp:97)
WARNING: Ignoring inactive control parameter: atom_velocities (src/REAXFF/reaxff_control.cpp:97)
WARNING: Ignoring inactive control parameter: bond_info (src/REAXFF/reaxff_control.cpp:97)
WARNING: Ignoring inactive control parameter: angle_info (src/REAXFF/reaxff_control.cpp:97)
pair_coeff	* * ffield.reax.cho H C O
Reading potential file ffield.reax.cho with DATE: 2011-02-18

neighbor	2 bin
neigh_modify	every 10 delay 0 check no

fix		1 all nve
fix             2 all qeq/reax 1 0.0 10.0 1e-6 param.qeq
fix             3 all temp/berendsen 500.0 500.0 100.0

timestep	0.25

#dump		1 all atom 30 dump.reax.cho

run		3000

CITE-CITE-CITE-CITE-CITE-CITE-CITE-CITE-CITE-CITE-CITE-CITE-CITE

Your simulation uses code contributions which should be cited:

- pair reaxff command:

@Article{Aktulga12,
 author = {H. M. Aktulga, J. C. Fogarty, S. A. Pandit, A. Y. Grama},
 title = {Parallel reactive molecular dynamics: Numerical methods and algorithmic techniques},
 journal = {Parallel Computing},
 year =    2012,
 volume =  38,
 pages =   {245--259}
}

- fix qeq/reaxff command:

@Article{Aktulga12,
 author = {H. M. Aktulga, J. C. Fogarty, S. A. Pandit, A. Y. Grama},
 title = {Parallel reactive molecular dynamics: Numerical methods and algorithmic techniques},
 journal = {Parallel Computing},
 year =    2012,
 volume =  38,
 pages =   {245--259}
}

CITE-CITE-CITE-CITE-CITE-CITE-CITE-CITE-CITE-CITE-CITE-CITE-CITE

Neighbor list info ...
  update every 10 steps, delay 0 steps, check no
  max neighbors/atom: 2000, page size: 100000
  master list distance cutoff = 12
  ghost atom cutoff = 12
  binsize = 6, bins = 5 5 5
  2 neighbor lists, perpetual/occasional/extra = 2 0 0
  (1) pair reax/c, perpetual
      attributes: half, newton off, ghost
      pair build: half/bin/newtoff/ghost
      stencil: full/ghost/bin/3d
      bin: standard
  (2) fix qeq/reax, perpetual, copy from (1)
      attributes: half, newton off, ghost
      pair build: copy
      stencil: none
      bin: none
Per MPI rank memory allocation (min/avg/max) = 8.550 | 9.898 | 11.67 Mbytes
Step Temp E_pair E_mol TotEng Press 
       0            0   -10226.557            0   -10226.557   -106.09738 
    3000    547.82679   -10170.166            0   -10000.337    63.601028 
Loop time of 6.55208 on 8 procs for 3000 steps with 105 atoms

Performance: 9.890 ns/day, 2.427 hours/ns, 457.870 timesteps/s
99.6% CPU use with 8 MPI tasks x no OpenMP threads

MPI task timing breakdown:
Section |  min time  |  avg time  |  max time  |%varavg| %total
---------------------------------------------------------------
Pair    | 2.3495     | 2.8281     | 3.5977     |  22.5 | 43.16
Neigh   | 0.11153    | 0.15282    | 0.20571    |   7.6 |  2.33
Comm    | 0.58859    | 1.341      | 1.8376     |  32.4 | 20.47
Output  | 9.2359e-05 | 9.9119e-05 | 0.00013303 |   0.0 |  0.00
Modify  | 2.1531     | 2.2258     | 2.2765     |   2.7 | 33.97
Other   |            | 0.00423    |            |       |  0.06

Nlocal:        13.1250 ave          37 max           0 min
Histogram: 2 1 1 1 0 2 0 0 0 1
Nghost:        294.000 ave         427 max         173 min
Histogram: 2 0 1 0 1 2 0 0 1 1
Neighs:        665.625 ave        1829 max           0 min
Histogram: 3 0 1 0 1 1 1 0 0 1

Total # of neighbors = 5325
Ave neighs/atom = 50.714286
Neighbor list builds = 300
Dangerous builds not checked
Total wall time: 0:00:06
