LAMMPS (18 Jun 2019)
  using 1 OpenMP thread(s) per MPI task
# 2d polygon nparticle bodies

units		lj
dimension       2
atom_style	body nparticle 2 6

read_data       data.body
  orthogonal box = (-15.5322 -15.5322 -0.5) to (15.5322 15.5322 0.5)
  2 by 4 by 1 MPI processor grid
  reading atoms ...
  100 atoms
  100 bodies
  read_data CPU = 0.0129361 secs

velocity	all create 1.44 87287 loop geom

pair_style	body/nparticle 5.0
pair_coeff	* * 1.0 1.0

neighbor	0.3 bin

fix		1 all nve/body
fix		2 all enforce2d

#compute         1 all body/local type 1 2 3
#dump            1 all local 100 dump.body index c_1[1] c_1[2] c_1[3] c_1[4]

thermo          500
run		10000
Neighbor list info ...
  update every 1 steps, delay 10 steps, check yes
  max neighbors/atom: 2000, page size: 100000
  master list distance cutoff = 5.3
  ghost atom cutoff = 5.3
  binsize = 2.65, bins = 12 12 1
  1 neighbor lists, perpetual/occasional/extra = 1 0 0
  (1) pair body/nparticle, perpetual
      attributes: half, newton on
      pair build: half/bin/atomonly/newton
      stencil: half/bin/2d/newton
      bin: standard
Per MPI rank memory allocation (min/avg/max) = 4.757 | 4.944 | 5.132 Mbytes
Step Temp E_pair E_mol TotEng Press 
       0         1.44  -0.63799525            0   0.78760475  -0.15028724 
     500    1.5681124   -1.6060641            0 -0.053632801   0.23819933 
    1000    1.7596217   -1.7290976            0  0.012927885   0.12600944 
    1500    1.5746718   -1.5427933            0  0.016131762   0.21832855 
    2000    1.6187523   -1.5563047            0  0.046260149   0.35911767 
    2500    1.7209512   -1.6951921            0 0.0085495341   0.24577688 
    3000    1.6941342   -1.5784101            0  0.098782688   0.26333729 
    3500    1.7253456   -1.6249743            0  0.083117845   0.25744994 
    4000    1.6954789   -1.5754872            0   0.10303686  0.073898113 
    4500    1.6228651   -1.6020793            0 0.0045571953  0.065120814 
    5000    1.8437066   -1.8781632            0 -0.052893686   0.11559242 
    5500    1.6619739   -1.6213756            0   0.02397857   0.52347228 
    6000    1.5312998   -1.7614666            0  -0.24547985   0.15416433 
    6500    1.6955833   -1.7533937            0 -0.074766257   0.32220513 
    7000    1.8325345    -1.773436            0  0.040773116   0.45354667 
    7500    1.8349429   -1.7383976            0  0.078195888   0.22233739 
    8000     1.812755   -1.7206037            0  0.074023806   0.16933305 
    8500    1.8504138   -1.6559092            0   0.17600041   0.08971099 
    9000    1.6974044   -1.7483973            0 -0.067966917   0.24495043 
    9500    1.6108077    -1.606543            0   -0.0118434   0.44649576 
   10000    1.5219547   -1.5880716            0 -0.081336412   0.53512474 
Loop time of 0.645651 on 8 procs for 10000 steps with 100 atoms

Performance: 6690922.360 tau/day, 15488.246 timesteps/s
98.5% CPU use with 8 MPI tasks x 1 OpenMP threads

MPI task timing breakdown:
Section |  min time  |  avg time  |  max time  |%varavg| %total
---------------------------------------------------------------
Pair    | 0.28303    | 0.33227    | 0.38619    |   6.6 | 51.46
Neigh   | 0.0029745  | 0.0033886  | 0.0036695  |   0.4 |  0.52
Comm    | 0.19511    | 0.25163    | 0.30351    |   7.7 | 38.97
Output  | 0.00058126 | 0.00063071 | 0.00078201 |   0.0 |  0.10
Modify  | 0.027756   | 0.031386   | 0.033212   |   1.0 |  4.86
Other   |            | 0.02635    |            |       |  4.08

Nlocal:    12.5 ave 16 max 9 min
Histogram: 1 0 0 0 3 3 0 0 0 1
Nghost:    38.625 ave 42 max 36 min
Histogram: 2 1 0 0 0 3 0 0 1 1
Neighs:    53.75 ave 77 max 38 min
Histogram: 1 1 1 1 1 2 0 0 0 1

Total # of neighbors = 430
Ave neighs/atom = 4.3
Neighbor list builds = 768
Dangerous builds = 63
Total wall time: 0:00:00
