LAMMPS (28 Mar 2023 - Development)
# 3d rounded cubes

variable    r     index 3
variable    steps index 10000

units       lj
dimension   3

atom_style  body rounded/polyhedron 1 10

read_data   data.cubes
Reading data file ...
  orthogonal box = (0 0 0) to (6 6 6)
  2 by 2 by 2 MPI processor grid
  reading atoms ...
  2 atoms
  2 bodies
  read_data CPU = 0.002 seconds

replicate   $r $r $r
replicate   3 $r $r
replicate   3 3 $r
replicate   3 3 3
Replication is creating a 3x3x3 = 27 times larger system...
  orthogonal box = (0 0 0) to (18 18 18)
  2 by 2 by 2 MPI processor grid
  54 atoms
  replicate CPU = 0.003 seconds

velocity    all create 1.2 187287 dist gaussian mom yes rot yes

variable cut_inner  equal 0.5
variable k_n        equal 100
variable k_na       equal 1
variable c_n        equal 20
variable c_t        equal 5
variable mu         equal 0
variable A_ua       equal 1

pair_style body/rounded/polyhedron ${c_n} ${c_t} ${mu} ${A_ua} ${cut_inner}
pair_style body/rounded/polyhedron 20 ${c_t} ${mu} ${A_ua} ${cut_inner}
pair_style body/rounded/polyhedron 20 5 ${mu} ${A_ua} ${cut_inner}
pair_style body/rounded/polyhedron 20 5 0 ${A_ua} ${cut_inner}
pair_style body/rounded/polyhedron 20 5 0 1 ${cut_inner}
pair_style body/rounded/polyhedron 20 5 0 1 0.5
pair_coeff * * ${k_n} ${k_na}
pair_coeff * * 100 ${k_na}
pair_coeff * * 100 1

comm_modify vel yes

neighbor     0.5 bin
neigh_modify every 1 delay 0 check yes

timestep     0.001

#fix          1 all nve/body
fix          1 all nvt/body temp 1.2 1.2 0.1
#fix          1 all npt/body temp 1.2 1.2 0.1 iso 0.002 0.02 1.0

compute      p2 all pressure 1_temp

#compute      1 all body/local id 1 2 3
#dump         1 all local 1000 dump.* index c_1[1] c_1[2] c_1[3] c_1[4]

#dump         2 all image 1000 image.*.jpg type type #             zoom 1.5 adiam 1.5 body type 0 0 view 60 15
#dump_modify  2 pad 6

thermo_style custom step ke pe etotal c_p2 c_1_temp

thermo       1000

run          ${steps}
run          10000
Generated 0 of 0 mixed pair_coeff terms from geometric mixing rule
Neighbor list info ...
  update: every = 1 steps, delay = 0 steps, check = yes
  max neighbors/atom: 2000, page size: 100000
  master list distance cutoff = 3.9641016
  ghost atom cutoff = 3.9641016
  binsize = 1.9820508, bins = 10 10 10
  1 neighbor lists, perpetual/occasional/extra = 1 0 0
  (1) pair body/rounded/polyhedron, perpetual
      attributes: half, newton on
      pair build: half/bin/atomonly/newton
      stencil: half/bin/3d
      bin: standard
Per MPI rank memory allocation (min/avg/max) = 5.88 | 5.883 | 5.888 Mbytes
   Step         KinEng         PotEng         TotEng          c_p2         c_1_temp   
         0   1.7666667      0              1.7666667      0.01090535     0.59439252   
      1000   3.1484309      0.17490057     3.3233315      0.023507394    1.1661186    
      2000   2.9282354      0.13759459     3.0658299      0.022278043    1.1932722    
      3000   3.1464566      0.18328438     3.329741       0.021315099    1.2620235    
      4000   2.8047537      0.44760493     3.2523586      0.036193204    1.1494265    
      5000   2.9763625      0.15971686     3.1360794      0.029550845    1.2509409    
      6000   2.8731039      0.21927322     3.0923772      0.028048355    1.1468763    
      7000   3.198537       0.19540335     3.3939403      0.019922645    1.253807     
      8000   2.9630909      0.21065312     3.1737441      0.035559079    1.1784662    
      9000   3.0340971      0.14690183     3.1809989      0.024984181    1.2141022    
     10000   3.3255245      0.18304568     3.5085701      0.022631942    1.2962247    
Loop time of 16.4561 on 8 procs for 10000 steps with 54 atoms

Performance: 52503.376 tau/day, 607.678 timesteps/s, 32.815 katom-step/s
99.9% CPU use with 8 MPI tasks x no OpenMP threads

MPI task timing breakdown:
Section |  min time  |  avg time  |  max time  |%varavg| %total
---------------------------------------------------------------
Pair    | 2.935      | 6.9538     | 15.068     | 142.9 | 42.26
Neigh   | 0.001188   | 0.0013379  | 0.0017546  |   0.5 |  0.01
Comm    | 1.2745     | 9.3834     | 13.406     | 122.9 | 57.02
Output  | 0.00051177 | 0.00055848 | 0.000794   |   0.0 |  0.00
Modify  | 0.067758   | 0.074688   | 0.10332    |   4.0 |  0.45
Other   |            | 0.04232    |            |       |  0.26

Nlocal:           6.75 ave          10 max           0 min
Histogram: 1 0 0 0 0 1 1 1 2 2
Nghost:             41 ave          45 max          38 min
Histogram: 2 1 0 0 1 2 0 1 0 1
Neighs:             12 ave          19 max           0 min
Histogram: 1 0 0 0 1 2 0 1 1 2

Total # of neighbors = 96
Ave neighs/atom = 1.7777778
Neighbor list builds = 248
Dangerous builds = 0

Total wall time: 0:00:16
