LAMMPS (29 Sep 2021)
# 2d polygon nparticle bodies

units		lj
dimension       2
atom_style	body nparticle 2 6

read_data       data.body
Reading data file ...
  orthogonal box = (-15.532225 -15.532225 -0.50000000) to (15.532225 15.532225 0.50000000)
  2 by 4 by 1 MPI processor grid
  reading atoms ...
  100 atoms
  100 bodies
  read_data CPU = 0.001 seconds

velocity	all create 1.44 87287 loop geom

pair_style	body/nparticle 5.0
pair_coeff	* * 1.0 1.0

neighbor	0.5 bin
neigh_modify    every 1 delay 0 check yes

fix		1 all nve/body
#fix		1 all nvt/body temp 1.44 1.44 1.0
fix		2 all enforce2d

#compute         1 all body/local type 1 2 3
#dump            1 all local 100 dump.body index c_1[1] c_1[2] c_1[3] c_1[4]

#dump		2 all image 1000 image.*.jpg type type #		zoom 1.6 adiam 1.5 body type 1.0 0
#dump_modify    2 pad 5

thermo          100
run		10000
Neighbor list info ...
  update every 1 steps, delay 0 steps, check yes
  max neighbors/atom: 2000, page size: 100000
  master list distance cutoff = 5.5
  ghost atom cutoff = 5.5
  binsize = 2.75, bins = 12 12 1
  1 neighbor lists, perpetual/occasional/extra = 1 0 0
  (1) pair body/nparticle, perpetual
      attributes: half, newton on
      pair build: half/bin/atomonly/newton
      stencil: half/bin/2d
      bin: standard
Per MPI rank memory allocation (min/avg/max) = 5.266 | 5.266 | 5.267 Mbytes
Step Temp E_pair E_mol TotEng Press 
       0         1.44  -0.63799525            0   0.78760475  -0.15028724 
     100    1.6423663    -1.000111            0   0.62583161   0.16116978 
     200    1.4802799   -1.2478114            0   0.21766577   0.35470288 
     300    1.4735049   -1.3210883            0   0.13768152   0.45308887 
     400    1.5120166   -1.5930273            0 -0.096130877   0.13122496 
     500    1.5452371   -1.6304008            0  -0.10061602   0.12569745 
     600    1.6215495   -1.6462687            0 -0.040934672   0.43814921 
     700    1.5972007   -1.6333058            0 -0.052077162   0.13804648 
     800    1.6864401   -1.6899752            0 -0.020399483   0.20269275 
     900      1.65718   -1.6642204            0 -0.023612134   0.29535643 
    1000    1.5891519   -1.7008628            0  -0.12760242   0.27356098 
    1100     1.834367   -1.6719213            0   0.14410205   0.15966026 
    1200    1.6361436   -1.6546978            0 -0.034915604   0.45237777 
    1300    1.6566901   -1.7036665            0 -0.063543276   0.13710401 
    1400    1.5597437   -1.5872138            0 -0.043067564   0.29931413 
    1500    1.5947235   -1.7356445            0  -0.15686821   0.24999216 
    1600    1.6065587   -1.6627986            0 -0.072305418   0.34149043 
    1700    1.5699618   -1.5339154            0  0.020346828   0.29148613 
    1800    1.6631666   -1.6150799            0  0.031455027   0.10260681 
    1900    1.7482705   -1.8236432            0 -0.092855381   0.22525239 
    2000    1.7099316     -1.65598            0  0.036852269   0.10773691 
    2100    1.6163675   -1.5091294            0  0.091074466   0.27328789 
    2200    1.5907606   -1.5769942            0 -0.0021412966   0.20667424 
    2300    1.6479877   -1.6323658            0 -0.0008580375   0.21268294 
    2400    1.5253022   -1.5157958            0 -0.0057465786   0.33573351 
    2500      1.60831   -1.6098964            0 -0.017669563  0.068380822 
    2600    1.7964158   -1.7959016            0 -0.017450018   0.29639583 
    2700    1.7584034   -1.8536455            0  -0.11282616   0.18213804 
    2800    1.6441406   -1.6449853            0 -0.017286134   0.50822752 
    2900    1.6663806   -1.7560759            0  -0.10635908  0.047546664 
    3000     1.577984   -1.6368371            0 -0.074632909   0.39773881 
    3100    1.6656669   -1.7370046            0 -0.087994405   0.19012146 
    3200    1.6373043    -1.598295            0  0.022636213   0.47117308 
    3300    1.5975454   -1.6269482            0 -0.045378198   0.26948839 
    3400    1.6495503   -1.7614602            0  -0.12840537   0.37765207 
    3500     1.681367   -1.7336351            0  -0.06908182  0.055857546 
    3600    1.8027941   -1.7391856            0  0.045580588 -0.030028133 
    3700    1.7007509   -1.6869755            0 -0.0032321311   0.16923124 
    3800    1.6088187   -1.6780028            0 -0.085272288   0.30442872 
    3900    1.5775179   -1.6914314            0  -0.12968869   0.11502502 
    4000    1.8224111   -1.6337837            0    0.1704033  0.021305113 
    4100    1.7751685   -1.7256516            0  0.031765219   0.28640282 
    4200    1.6446738   -1.7088423            0 -0.080615235 -0.054497357 
    4300    1.7893988    -1.810148            0 -0.038643178    0.0666655 
    4400    1.7321859   -1.6938748            0  0.020989282   0.29613016 
    4500    1.7637695   -1.7109058            0  0.035225999   0.33200261 
    4600    1.8114069   -1.7106753            0  0.082617493   0.11941694 
    4700    1.7987287    -1.738073            0  0.042668349   0.02670471 
    4800     1.498706   -1.7224083            0  -0.23868941   0.17098354 
    4900    1.6296156   -1.8448379            0  -0.23151845   0.37099727 
    5000    1.8731287   -1.9368539            0 -0.082456487  0.026071883 
    5100    1.8112707    -1.891365            0 -0.098207078  0.047671259 
    5200    1.7905331   -1.7423343            0  0.030293516   0.40643397 
    5300    1.8593264   -1.9059598            0 -0.065226647   0.21812836 
    5400     1.709862   -1.6474693            0   0.04529409   0.41238636 
    5500    1.8885664   -1.8781864            0 -0.0085057208    0.1567417 
    5600    1.8900675    -1.986283            0  -0.11511615   0.10186457 
    5700    1.8435089   -1.8906028            0 -0.065528948   0.25263493 
    5800    1.7301899   -1.8000054            0 -0.087117373 -0.054564507 
    5900    1.6561277    -1.590277            0  0.049289376   0.43712118 
    6000    1.7910266   -1.7668956            0 0.0062207103   0.20810992 
    6100    1.7806584   -1.7717841            0 -0.008932369   0.25289058 
    6200    1.8123714   -1.7910099            0 0.0032377271   0.21547891 
    6300    1.8477281   -1.7602623            0  0.068988516  0.096701281 
    6400    1.9668792   -1.7896894            0     0.157521    0.1229041 
    6500    1.7355225   -1.7613548            0  -0.04318756   0.25141543 
    6600    1.6810111   -1.7726822            0   -0.1084812   0.27222631 
    6700    1.6109721   -1.6873146            0 -0.092452223   0.23414948 
    6800    1.6411113   -1.7064609            0 -0.081760646   0.17885337 
    6900    1.7653769   -1.8298795            0 -0.082156361   0.36881798 
    7000    1.5501425   -1.6526238            0  -0.11798271   0.43642834 
    7100    1.7185103   -1.8108617            0  -0.10953656  0.096419346 
    7200    1.7280022   -1.8175926            0   -0.1068704  0.063441076 
    7300    1.6329441    -1.700156            0 -0.083541326   0.38279945 
    7400    1.7346497    -1.822344            0  -0.10504085   0.11257565 
    7500    1.7490794   -1.7302571            0 0.0013314798   0.25448966 
    7600    1.8808964   -1.7769038            0  0.085183646   0.26112322 
    7700    1.8052138   -1.7093745            0  0.077787142   0.11686519 
    7800    1.6832691   -1.6456204            0  0.020815982    0.3241979 
    7900    1.6626771   -1.6211837            0  0.024866618   0.30158212 
    8000    1.7674459   -1.6701182            0  0.079653198  0.015694035 
    8100    1.6441793   -1.6437951            0 -0.016057506  0.048029282 
    8200    1.6325091   -1.6787319            0 -0.062547884  0.075804755 
    8300    1.7882651   -1.7303165            0  0.040065983   0.10335073 
    8400    1.8338275   -1.8642553            0  -0.04876608   0.19308029 
    8500    1.7367799   -1.7048654            0  0.014546763   0.41097838 
    8600    1.6953271   -1.7636637            0 -0.085289863   0.14469768 
    8700    1.6873903   -1.5974533            0  0.073063156     0.378997 
    8800    1.5511162   -1.5924673            0 -0.056862228   0.51613106 
    8900    1.6312818   -1.5991922            0  0.015776725   0.61121761 
    9000    1.8095888   -1.7892255            0 0.0022673712  0.083475774 
    9100     1.862402   -1.7589167            0  0.084861341   0.40258454 
    9200    1.9727295   -1.8956629            0  0.057339304   0.17280024 
    9300    1.7149144   -1.7589806            0 -0.061215382   0.24664214 
    9400    1.6717049   -1.6763878            0 -0.021399944   0.38246489 
    9500     1.825121   -1.7876508            0  0.019218951   0.26755449 
    9600    1.6974724   -1.8155133            0  -0.13501562   0.36331232 
    9700    1.7022794   -1.7422202            0 -0.056963623   0.39189325 
    9800    1.7699081    -1.808622            0 -0.056412993   0.03961463 
    9900    1.6801763   -1.6708165            0 -0.0074419291   0.21644444 
   10000    1.7293206   -1.7008119            0  0.011215441   0.31987044 
Loop time of 0.332686 on 8 procs for 10000 steps with 100 atoms

Performance: 12985198.137 tau/day, 30058.329 timesteps/s
99.6% CPU use with 8 MPI tasks x no OpenMP threads

MPI task timing breakdown:
Section |  min time  |  avg time  |  max time  |%varavg| %total
---------------------------------------------------------------
Pair    | 0.11902    | 0.14956    | 0.18023    |   5.3 | 44.95
Neigh   | 0.0011069  | 0.0012319  | 0.0014066  |   0.3 |  0.37
Comm    | 0.097992   | 0.13259    | 0.1699     |   6.3 | 39.86
Output  | 0.0013161  | 0.0014768  | 0.0018793  |   0.4 |  0.44
Modify  | 0.013927   | 0.016167   | 0.019672   |   1.5 |  4.86
Other   |            | 0.03166    |            |       |  9.52

Nlocal:        12.5000 ave          16 max           9 min
Histogram: 1 2 1 0 0 1 0 0 1 2
Nghost:        39.6250 ave          47 max          35 min
Histogram: 1 1 0 2 3 0 0 0 0 1
Neighs:        56.7500 ave          91 max          37 min
Histogram: 3 1 1 0 0 1 0 0 1 1

Total # of neighbors = 454
Ave neighs/atom = 4.5400000
Neighbor list builds = 468
Dangerous builds = 0
Total wall time: 0:00:00
