LAMMPS (4 Jan 2019)
# 2d polygon nparticle bodies

units		lj
dimension       2
atom_style	body nparticle 2 6

read_data       data.body
  orthogonal box = (-15.5322 -15.5322 -0.5) to (15.5322 15.5322 0.5)
  2 by 4 by 1 MPI processor grid
  reading atoms ...
  100 atoms
  100 bodies

velocity	all create 1.44 87287 loop geom

pair_style	body/nparticle 5.0
pair_coeff	* * 1.0 1.0

neighbor	0.3 bin

fix		1 all nve/body
fix		2 all enforce2d

#compute         1 all body/local type 1 2 3
#dump            1 all local 100 dump.body index c_1[1] c_1[2] c_1[3] c_1[4]

thermo          500
run		10000
Neighbor list info ...
  update every 1 steps, delay 10 steps, check yes
  max neighbors/atom: 2000, page size: 100000
  master list distance cutoff = 5.3
  ghost atom cutoff = 5.3
  binsize = 2.65, bins = 12 12 1
  1 neighbor lists, perpetual/occasional/extra = 1 0 0
  (1) pair body/nparticle, perpetual
      attributes: half, newton on
      pair build: half/bin/atomonly/newton
      stencil: half/bin/2d/newton
      bin: standard
Per MPI rank memory allocation (min/avg/max) = 4.757 | 4.944 | 5.132 Mbytes
Step Temp E_pair E_mol TotEng Press 
       0         1.44  -0.63799525            0   0.78760475  -0.15028724 
     500    1.5681124   -1.6060641            0 -0.053632801   0.23819933 
    1000    1.7596217   -1.7290976            0  0.012927885   0.12600944 
    1500    1.5746718   -1.5427933            0  0.016131763   0.21832855 
    2000    1.6187626   -1.5563096            0  0.046265386   0.35910713 
    2500    1.7205884   -1.6947705            0 0.0086119955   0.24638622 
    3000    1.7650948   -1.6821543            0  0.065289546   0.19585166 
    3500    1.9086396   -1.6600509            0   0.22950231   0.53196919 
    4000    1.8135582   -1.7614916            0  0.033931001   0.17183398 
    4500    1.5821638    -1.637666            0 -0.071323773   0.53074394 
    5000    1.7084427   -1.7648744            0 -0.073516112   0.17327731 
    5500    1.6483062   -1.7340149            0  -0.10219172   0.16197976 
    6000    1.7440494   -1.7374865            0 -0.010877535   0.48817529 
    6500    1.6921104   -1.6585211            0    0.0166682  0.092081476 
    7000    1.7689044   -1.7655905            0 -0.014375152   0.24132517 
    7500    1.5966534   -1.6457839            0 -0.065097081   0.25718123 
    8000    1.6360273   -1.8182158            0  -0.19854879    0.3367397 
    8500    1.6213595   -1.6731323            0 -0.067986331   0.39072175 
    9000    1.6990347   -1.7055053            0 -0.023460993   0.20622585 
    9500    1.5927795   -1.5789075            0 -0.002055816   0.40773908 
   10000    1.6187471   -1.5965469            0 0.0060127494    0.4216138 
Loop time of 0.594689 on 8 procs for 10000 steps with 100 atoms

Performance: 7264302.235 tau/day, 16815.514 timesteps/s
100.0% CPU use with 8 MPI tasks x no OpenMP threads

MPI task timing breakdown:
Section |  min time  |  avg time  |  max time  |%varavg| %total
---------------------------------------------------------------
Pair    | 0.19558    | 0.25393    | 0.36333    |  10.3 | 42.70
Neigh   | 0.0025474  | 0.0028405  | 0.0033233  |   0.5 |  0.48
Comm    | 0.18626    | 0.29335    | 0.34333    |   9.2 | 49.33
Output  | 0.00043674 | 0.00048787 | 0.00055476 |   0.0 |  0.08
Modify  | 0.021419   | 0.024093   | 0.028221   |   1.4 |  4.05
Other   |            | 0.01999    |            |       |  3.36

Nlocal:    12.5 ave 13 max 10 min
Histogram: 1 0 0 0 0 0 1 0 0 6
Nghost:    37.5 ave 42 max 32 min
Histogram: 1 0 0 1 0 3 0 0 2 1
Neighs:    52.25 ave 61 max 38 min
Histogram: 1 0 0 1 1 0 2 0 0 3

Total # of neighbors = 418
Ave neighs/atom = 4.18
Neighbor list builds = 786
Dangerous builds = 78
Total wall time: 0:00:00
