LAMMPS (24 Aug 2020)
# 2d polygon nparticle bodies

units		lj
dimension       2
atom_style	body nparticle 2 6

read_data       data.body
Reading data file ...
  orthogonal box = (-15.532225 -15.532225 -0.5) to (15.532225 15.532225 0.5)
  2 by 4 by 1 MPI processor grid
  reading atoms ...
  100 atoms
  100 bodies
  read_data CPU = 0.217 seconds

velocity	all create 1.44 87287 loop geom

pair_style	body/nparticle 5.0
pair_coeff	* * 1.0 1.0

neighbor	0.3 bin

fix		1 all nve/body
fix		2 all enforce2d

#compute         1 all body/local type 1 2 3
#dump            1 all local 100 dump.body index c_1[1] c_1[2] c_1[3] c_1[4]

thermo          500
run		10000
Neighbor list info ...
  update every 1 steps, delay 10 steps, check yes
  max neighbors/atom: 2000, page size: 100000
  master list distance cutoff = 5.3
  ghost atom cutoff = 5.3
  binsize = 2.65, bins = 12 12 1
  1 neighbor lists, perpetual/occasional/extra = 1 0 0
  (1) pair body/nparticle, perpetual
      attributes: half, newton on
      pair build: half/bin/atomonly/newton
      stencil: half/bin/2d/newton
      bin: standard
Per MPI rank memory allocation (min/avg/max) = 5.266 | 5.266 | 5.267 Mbytes
Step Temp E_pair E_mol TotEng Press 
       0         1.44  -0.63799525            0   0.78760475  -0.15028724 
     500    1.5452372   -1.6304007            0  -0.10061587    0.1256976 
    1000    1.5891537   -1.7008365            0  -0.12757429   0.27358483 
    1500    1.5984398   -1.7355287            0  -0.15307327   0.25038761 
    2000    1.6294392   -1.7178857            0  -0.10474096 -0.049742784 
    2500    1.6740339   -1.5731193            0  0.084174205   0.07311769 
    3000    1.8217256   -1.8250322            0 -0.021523794   0.18910551 
    3500    1.8711468   -1.6978082            0    0.1546272   0.29556159 
    4000     1.782009   -1.6636563            0   0.10053265  0.012394807 
    4500    1.7833612   -1.7444609            0  0.021066757   0.37895803 
    5000    1.7672317   -1.7855927            0  -0.03603337 -0.010604613 
    5500     1.653617   -1.8708288            0  -0.23374804   0.26425954 
    6000    1.9111388   -1.7612249            0    0.1308025   0.34517719 
    6500    1.5992713    -1.480309            0   0.10296955   0.27211384 
    7000    1.8307301   -1.7351167            0  0.077306132   0.34474246 
    7500    1.7014665   -1.7234989            0 -0.039047101   0.16973998 
    8000    1.6679639   -1.6363088            0  0.014975488   0.20435494 
    8500    1.6644998   -1.6952024            0 -0.047347624   0.19879341 
    9000    1.6822156   -1.4822989            0   0.18309446   0.69608309 
    9500    1.9023183    -1.867117            0  0.016178164   0.32159731 
   10000    1.5175947   -1.6468062            0  -0.14438745   0.21472395 
Loop time of 2.34678 on 8 procs for 10000 steps with 100 atoms

Performance: 1840819.925 tau/day, 4261.157 timesteps/s
87.0% CPU use with 8 MPI tasks x no OpenMP threads

MPI task timing breakdown:
Section |  min time  |  avg time  |  max time  |%varavg| %total
---------------------------------------------------------------
Pair    | 0.31259    | 0.4085     | 0.62548    |  13.9 | 17.41
Neigh   | 0.0036634  | 0.0063902  | 0.020469   |   6.7 |  0.27
Comm    | 1.4819     | 1.6955     | 1.8438     |   7.7 | 72.25
Output  | 0.0010103  | 0.0030197  | 0.005981   |   2.7 |  0.13
Modify  | 0.027439   | 0.037581   | 0.077566   |   7.9 |  1.60
Other   |            | 0.1958     |            |       |  8.34

Nlocal:        12.5000 ave          17 max           8 min
Histogram: 1 1 0 1 1 1 1 0 1 1
Nghost:        39.8750 ave          48 max          36 min
Histogram: 1 1 3 2 0 0 0 0 0 1
Neighs:        53.8750 ave          71 max          31 min
Histogram: 1 0 0 1 2 1 0 0 1 2

Total # of neighbors = 431
Ave neighs/atom = 4.3100000
Neighbor list builds = 784
Dangerous builds = 83
Total wall time: 0:00:02
