LAMMPS (27 Oct 2021)
# 3d Lennard-Jones melt, thermostatted by fix controller

units           lj
atom_style      atomic
boundary        p p m
processors      * * 1
lattice         fcc 0.8442
Lattice spacing in x,y,z = 1.6795962 1.6795962 1.6795962
region          box block 0 10 0 10 -4 14
region          slab block 0 10 0 10 0 10
create_box      1 box
Created orthogonal box = (0.0000000 0.0000000 -6.7183848) to (16.795962 16.795962 23.514347)
  4 by 2 by 1 MPI processor grid
create_atoms    1 region slab
Created 4200 atoms
  using lattice units in orthogonal box = (0.0000000 0.0000000 -6.7183848) to (16.795962 16.795962 23.514347)
  create_atoms CPU = 0.000 seconds
mass            1 1.0

velocity        all create 1.44 87287 loop geom

pair_style      lj/cut 2.5
pair_coeff      1 1 1.0 1.0 2.5

neighbor        0.3 bin
neigh_modify    delay 2 every 2 check yes

fix             1 all nve
fix             3 all langevin 1.5 1.5 0.5 412513

variable        zhi internal $(10.5*zlat)
variable        zhi internal 17.635760009516324942
variable        kwall equal 20.0
fix             2 all wall/harmonic zlo -0.5 ${kwall} 0.0 2.5 zhi v_zhi ${kwall} 0.0 2.5
fix             2 all wall/harmonic zlo -0.5 20 0.0 2.5 zhi v_zhi ${kwall} 0.0 2.5
fix             2 all wall/harmonic zlo -0.5 20 0.0 2.5 zhi v_zhi 20 0.0 2.5

variable        pzz equal pzz
fix             ave all ave/time 10 10 100 v_pzz
# equilibrate

thermo_style    custom  step temp pxx pyy pzz f_ave v_zhi
thermo           500
run             2500
Neighbor list info ...
  update every 2 steps, delay 2 steps, check yes
  max neighbors/atom: 2000, page size: 100000
  master list distance cutoff = 2.8
  ghost atom cutoff = 2.8
  binsize = 1.4, bins = 12 12 22
  1 neighbor lists, perpetual/occasional/extra = 1 0 0
  (1) pair lj/cut, perpetual
      attributes: half, newton on
      pair build: half/bin/atomonly/newton
      stencil: half/bin/3d
      bin: standard
Per MPI rank memory allocation (min/avg/max) = 3.118 | 3.121 | 3.125 Mbytes
Step Temp Pxx Pyy Pzz f_ave v_zhi 
       0         1.44   -2.8234811   -2.8425184   -2.7022745            0     17.63576 
     500    1.4876853    3.1060558    3.0776168    2.9482164    2.9012551     17.63576 
    1000    1.4986223    2.3717727    2.3265842    2.3362689    2.4333481     17.63576 
    1500    1.4900421    1.9621991     1.813545    1.8942647    1.9733065     17.63576 
    2000    1.5185802    1.7332165     1.676037    1.6367368    1.6630267     17.63576 
    2500    1.4905992    1.4121788    1.4749338    1.4397108    1.4594063     17.63576 
Loop time of 1.14705 on 8 procs for 2500 steps with 4200 atoms

Performance: 941543.981 tau/day, 2179.500 timesteps/s
95.4% CPU use with 8 MPI tasks x no OpenMP threads

MPI task timing breakdown:
Section |  min time  |  avg time  |  max time  |%varavg| %total
---------------------------------------------------------------
Pair    | 0.44281    | 0.52403    | 0.5945     |   8.3 | 45.68
Neigh   | 0.22603    | 0.25663    | 0.28901    |   4.5 | 22.37
Comm    | 0.16705    | 0.2695     | 0.38296    |  16.2 | 23.50
Output  | 6.125e-05  | 6.7445e-05 | 9.295e-05  |   0.0 |  0.01
Modify  | 0.066473   | 0.071159   | 0.07642    |   1.4 |  6.20
Other   |            | 0.02567    |            |       |  2.24

Nlocal:        525.000 ave         555 max         508 min
Histogram: 2 1 1 0 3 0 0 0 0 1
Nghost:        1509.88 ave        1547 max        1488 min
Histogram: 1 2 0 1 3 0 0 0 0 1
Neighs:        15724.6 ave       16674 max       15195 min
Histogram: 1 2 0 1 3 0 0 0 0 1

Total # of neighbors = 125797
Ave neighs/atom = 29.951667
Neighbor list builds = 412
Dangerous builds = 0

# use time averaged pressure for control
#fix             10 all controller 100 -0.05 20.0 0.0 0.0 f_ave 1.5 zhi

# use instantaneous pressure for control
fix             10 all controller 100 -0.05 50.0 0.0 0.0 v_pzz 1.5 zhi

# run with controller

run             5000
Per MPI rank memory allocation (min/avg/max) = 3.119 | 3.123 | 3.126 Mbytes
Step Temp Pxx Pyy Pzz f_ave v_zhi 
    2500    1.4905992    1.4124055    1.4751705    1.4399419    1.4594063     17.63576 
    3000    1.5154693    1.3742031    1.4069993     1.517616    1.4353623    17.164523 
    3500    1.5152773    1.2652331    1.3285502    1.4703488    1.3061142    16.357814 
    4000      1.49577     1.170345    1.2281329    1.2597907    1.3700729    15.078339 
    4500    1.5104865    1.4252872    1.3983181    1.3982428    1.4807775    14.860838 
    5000    1.5283893    1.3235255    1.4895491    1.5686988    1.5712755    14.761766 
    5500     1.518147    1.4763445    1.5184291    1.3800442    1.4552827     14.64335 
    6000    1.5164113    1.4221615    1.4331886    1.6532335    1.5711256    14.899039 
    6500    1.5136966     1.474457    1.4397614    1.4903166    1.5364652    14.874481 
    7000      1.47246     1.544663    1.5091651    1.5736188    1.5531892    14.657401 
    7500     1.504461    1.4084753    1.3404658    1.3540389    1.5088188    14.663684 
Loop time of 2.09491 on 8 procs for 5000 steps with 4200 atoms

Performance: 1031072.367 tau/day, 2386.742 timesteps/s
95.2% CPU use with 8 MPI tasks x no OpenMP threads

MPI task timing breakdown:
Section |  min time  |  avg time  |  max time  |%varavg| %total
---------------------------------------------------------------
Pair    | 0.77451    | 0.89203    | 1.0284     |   9.4 | 42.58
Neigh   | 0.41975    | 0.46298    | 0.51463    |   4.8 | 22.10
Comm    | 0.36331    | 0.55162    | 0.71771    |  16.7 | 26.33
Output  | 0.00011718 | 0.00012883 | 0.0001903  |   0.0 |  0.01
Modify  | 0.13148    | 0.13924    | 0.14854    |   1.5 |  6.65
Other   |            | 0.04892    |            |       |  2.34

Nlocal:        525.000 ave         543 max         513 min
Histogram: 1 1 1 1 1 2 0 0 0 1
Nghost:        1514.50 ave        1535 max        1499 min
Histogram: 1 1 1 0 1 3 0 0 0 1
Neighs:        15590.8 ave       16232 max       14895 min
Histogram: 1 0 1 1 1 1 1 0 1 1

Total # of neighbors = 124726
Ave neighs/atom = 29.696667
Neighbor list builds = 823
Dangerous builds = 0

Total wall time: 0:00:03
