LAMMPS (27 Oct 2021)
# 3d Lennard-Jones melt, thermostatted by fix controller

units		lj
atom_style	atomic

lattice		fcc 0.8442
Lattice spacing in x,y,z = 1.6795962 1.6795962 1.6795962
region		box block 0 10 0 10 0 10
create_box	1 box
Created orthogonal box = (0.0000000 0.0000000 0.0000000) to (16.795962 16.795962 16.795962)
  2 by 2 by 2 MPI processor grid
create_atoms	1 box
Created 4000 atoms
  using lattice units in orthogonal box = (0.0000000 0.0000000 0.0000000) to (16.795962 16.795962 16.795962)
  create_atoms CPU = 0.000 seconds
mass		1 1.0

velocity	all create 1.44 87287 loop geom

pair_style	lj/cut 2.5
pair_coeff	1 1 1.0 1.0 2.5

neighbor	0.3 bin
neigh_modify	delay 0 every 20 check no

fix		1 all nve

variable        tcontrol internal 0.5
fix             tstat all langevin v_tcontrol 0.5 0.5 2938940

# equilibrate

thermo          50
run		500
Neighbor list info ...
  update every 20 steps, delay 0 steps, check no
  max neighbors/atom: 2000, page size: 100000
  master list distance cutoff = 2.8
  ghost atom cutoff = 2.8
  binsize = 1.4, bins = 12 12 12
  1 neighbor lists, perpetual/occasional/extra = 1 0 0
  (1) pair lj/cut, perpetual
      attributes: half, newton on
      pair build: half/bin/atomonly/newton
      stencil: half/bin/3d
      bin: standard
Per MPI rank memory allocation (min/avg/max) = 2.645 | 2.645 | 2.645 Mbytes
Step Temp E_pair E_mol TotEng Press 
       0         1.44   -6.7733681            0   -4.6139081   -5.0199732 
      50   0.61063241   -5.9317881            0   -5.0160685  -0.82982325 
     100   0.57121546   -6.0269764            0   -5.1703674   -1.3854238 
     150   0.54259752   -6.0870059            0   -5.2733131   -1.7379632 
     200    0.5240911   -6.1006488            0   -5.3147087   -1.7973847 
     250   0.51665029   -6.1244734            0   -5.3496917   -1.9500879 
     300   0.52054656   -6.1311159            0   -5.3504913   -1.9798978 
     350   0.50563651   -6.1286637            0   -5.3703985   -1.9840676 
     400    0.5010686   -6.1521728            0   -5.4007578   -2.1058212 
     450   0.50297085   -6.1518516            0   -5.3975839   -2.1218413 
     500   0.50853821   -6.1557794            0   -5.3931627   -2.1404356 
Loop time of 0.215584 on 8 procs for 500 steps with 4000 atoms

Performance: 1001927.363 tau/day, 2319.276 timesteps/s
92.9% CPU use with 8 MPI tasks x no OpenMP threads

MPI task timing breakdown:
Section |  min time  |  avg time  |  max time  |%varavg| %total
---------------------------------------------------------------
Pair    | 0.10369    | 0.11661    | 0.12695    |   2.5 | 54.09
Neigh   | 0.015789   | 0.017192   | 0.018458   |   0.8 |  7.97
Comm    | 0.051304   | 0.064592   | 0.080745   |   4.3 | 29.96
Output  | 0.0001701  | 0.00020335 | 0.0002628  |   0.0 |  0.09
Modify  | 0.011782   | 0.012367   | 0.013094   |   0.5 |  5.74
Other   |            | 0.004621   |            |       |  2.14

Nlocal:        500.000 ave         530 max         479 min
Histogram: 1 1 1 2 0 2 0 0 0 1
Nghost:        1952.50 ave        1973 max        1923 min
Histogram: 1 0 0 0 2 0 2 1 1 1
Neighs:        18918.6 ave       20100 max       17651 min
Histogram: 1 0 0 0 4 0 1 1 0 1

Total # of neighbors = 151349
Ave neighs/atom = 37.837250
Neighbor list builds = 25
Dangerous builds not checked

# instantaneous temp for control

fix             10 all controller 100 1.0 0.5 0.0 0.0                 c_thermo_temp 1.5 tcontrol

# time-average temp for control

#fix             ave all ave/time 5 20 100 c_thermo_temp
#fix             10 all controller 100 1.0 0.5 0.0 0.0 #                f_ave 1.5 tcontrol

# run with controller

run             2500
Per MPI rank memory allocation (min/avg/max) = 2.645 | 2.645 | 2.645 Mbytes
Step Temp E_pair E_mol TotEng Press 
     500   0.50853821   -6.1557794            0   -5.3931627   -2.1404356 
     550   0.49247319   -6.1484796            0   -5.4099545   -2.0958487 
     600   0.50010082   -6.1532633            0   -5.4032996   -2.1085935 
     650   0.60072895   -6.0469841            0   -5.1461159   -1.4540172 
     700   0.67157827   -5.9796528            0   -4.9725372   -1.0507984 
     750   0.78355629   -5.8315879            0   -4.6565473  -0.19153175 
     800   0.85408063   -5.7313792            0   -4.4505786   0.39274655 
     850   0.95182981   -5.5884302            0   -4.1610424     1.188583 
     900    1.0215882   -5.4876353            0   -3.9556362    1.7527852 
     950    1.1092149   -5.3711038            0   -3.7076974    2.3942401 
    1000    1.1450183   -5.2983794            0   -3.5812814    2.7905146 
    1050    1.2235248   -5.2216961            0   -3.3868677     3.283841 
    1100    1.2805053   -5.1581538            0    -3.237876    3.6288217 
    1150     1.315036   -5.0761172            0   -3.1040563    4.0400042 
    1200    1.3600396   -5.0200599            0   -2.9805105    4.3916879 
    1250    1.3970015   -4.9851625            0   -2.8901841    4.5548919 
    1300     1.418891   -4.9672468            0   -2.8394424    4.6678513 
    1350    1.4005026   -4.9495609            0   -2.8493322    4.7362167 
    1400    1.3973171   -4.9298211            0   -2.8343694    4.8105126 
    1450    1.4416313   -4.9124125            0   -2.7505061    4.9139233 
    1500    1.4674006   -4.9174294            0   -2.7168788    4.9451353 
    1550    1.4752186   -4.8861621            0   -2.6738875    5.1346499 
    1600    1.4801555   -4.9250923            0   -2.7054141    4.9026187 
    1650    1.4729702   -4.9078434            0   -2.6989405    5.0057568 
    1700    1.4561549   -4.9304542            0   -2.7467679    4.8583694 
    1750    1.4675191   -4.8829067            0   -2.6821784    5.1051851 
    1800    1.4845886   -4.8638147            0   -2.6374885    5.2089901 
    1850    1.4892599   -4.8686332            0   -2.6353018    5.1880854 
    1900    1.5259437   -4.8959516            0   -2.6076083    5.0947646 
    1950    1.5025148   -4.8625874            0   -2.6093786     5.224542 
    2000    1.4794127   -4.8634446            0   -2.6448803    5.1676834 
    2050    1.4764668   -4.8797919            0   -2.6656453    5.0826263 
    2100    1.4890857   -4.8577955            0   -2.6247254    5.2615319 
    2150    1.4809661   -4.8589963            0   -2.6381026    5.1907932 
    2200    1.4691283   -4.8364818            0   -2.6333403    5.2717706 
    2250    1.5139287   -4.8840345            0   -2.6137093    5.0914667 
    2300    1.4710043   -4.8561639            0   -2.6502091    5.2029705 
    2350    1.4802248   -4.8589102            0   -2.6391281    5.2249599 
    2400    1.4983761   -4.8918112            0    -2.644809    5.0548843 
    2450    1.5019685   -4.8781976            0   -2.6258081    5.1369944 
    2500     1.485569   -4.8750648            0   -2.6472683    5.1497265 
    2550    1.5261903    -4.872656            0   -2.5839429    5.2009648 
    2600    1.5120303   -4.8379472            0   -2.5704689    5.3578414 
    2650    1.4994187   -4.8644677            0    -2.615902    5.1924521 
    2700    1.5132781   -4.8781968            0   -2.6088471    5.1715858 
    2750    1.4968379   -4.8870941            0   -2.6423986    5.0774996 
    2800    1.5121689   -4.8774871            0   -2.6098009    5.1526283 
    2850    1.5222135   -4.9170733            0   -2.6343238    4.9923267 
    2900    1.5009305   -4.8915609            0    -2.640728    5.1037389 
    2950    1.5385542   -4.8814286            0   -2.5741743    5.1752118 
    3000    1.4912771   -4.8259425            0   -2.5895861    5.3757161 
Loop time of 1.07219 on 8 procs for 2500 steps with 4000 atoms

Performance: 1007282.503 tau/day, 2331.672 timesteps/s
94.5% CPU use with 8 MPI tasks x no OpenMP threads

MPI task timing breakdown:
Section |  min time  |  avg time  |  max time  |%varavg| %total
---------------------------------------------------------------
Pair    | 0.45611    | 0.55499    | 0.65234    |  11.0 | 51.76
Neigh   | 0.071882   | 0.082887   | 0.09328    |   3.4 |  7.73
Comm    | 0.23408    | 0.35208    | 0.47123    |  16.9 | 32.84
Output  | 0.00079896 | 0.00087105 | 0.0011154  |   0.0 |  0.08
Modify  | 0.055533   | 0.060438   | 0.064767   |   1.7 |  5.64
Other   |            | 0.02092    |            |       |  1.95

Nlocal:        500.000 ave         509 max         486 min
Histogram: 1 0 0 0 3 0 1 0 0 3
Nghost:        1815.75 ave        1829 max        1802 min
Histogram: 1 0 0 2 1 1 0 2 0 1
Neighs:        18946.8 ave       19625 max       18500 min
Histogram: 2 1 0 1 1 1 1 0 0 1

Total # of neighbors = 151574
Ave neighs/atom = 37.893500
Neighbor list builds = 125
Dangerous builds not checked

Total wall time: 0:00:01
