LAMMPS (4 Jan 2019)
# Simple regression tests for threebody potentials

# NOTE: These are not intended to represent real materials

units           metal

atom_style      atomic
atom_modify     map array
boundary        p p p
atom_modify	sort 0 0.0

# temperature

variable t equal 1800.0

# cubic diamond unit cell

variable a equal 5.431
lattice         custom $a                               a1 1.0 0.0 0.0                          a2 0.0 1.0 0.0                          a3 0.0 0.0 1.0                          basis 0.0 0.0 0.0                       basis 0.0 0.5 0.5                       basis 0.5 0.0 0.5                       basis 0.5 0.5 0.0                       basis 0.25 0.25 0.25                    basis 0.25 0.75 0.75                    basis 0.75 0.25 0.75                    basis 0.75 0.75 0.25
lattice         custom 5.431                               a1 1.0 0.0 0.0                          a2 0.0 1.0 0.0                          a3 0.0 0.0 1.0                          basis 0.0 0.0 0.0                       basis 0.0 0.5 0.5                       basis 0.5 0.0 0.5                       basis 0.5 0.5 0.0                       basis 0.25 0.25 0.25                    basis 0.25 0.75 0.75                    basis 0.75 0.25 0.75                    basis 0.75 0.75 0.25
Lattice spacing in x,y,z = 5.431 5.431 5.431

region          myreg block     0 4                                 0 4                                 0 4

create_box      8 myreg
Created orthogonal box = (0 0 0) to (21.724 21.724 21.724)
  2 by 2 by 2 MPI processor grid
create_atoms    1 region myreg 		basis 1 1  		basis 2 2  		basis 3 3  		basis 4 4  		basis 5 5  		basis 6 6  		basis 7 7  		basis 8 8
Created 512 atoms
  Time spent = 0.00095347 secs

mass            *       28.06

velocity 	all create $t 5287287 mom yes rot yes dist gaussian
velocity 	all create 1800 5287287 mom yes rot yes dist gaussian

# Equilibrate using Stillinger-Weber model for silicon

pair_style      sw
pair_coeff 	* * Si.sw Si Si Si Si Si Si Si Si
Reading potential file Si.sw with DATE: 2007-06-11

thermo          10
fix             1 all nvt temp $t $t 0.1
fix             1 all nvt temp 1800 $t 0.1
fix             1 all nvt temp 1800 1800 0.1
fix_modify 	1 energy yes
timestep        1.0e-3
neighbor        1.0 bin
neigh_modify    every 1 delay 10 check yes
run             100
Neighbor list info ...
  update every 1 steps, delay 10 steps, check yes
  max neighbors/atom: 2000, page size: 100000
  master list distance cutoff = 4.77118
  ghost atom cutoff = 4.77118
  binsize = 2.38559, bins = 10 10 10
  1 neighbor lists, perpetual/occasional/extra = 1 0 0
  (1) pair sw, perpetual
      attributes: full, newton on
      pair build: full/bin/atomonly
      stencil: full/bin/3d
      bin: standard
Per MPI rank memory allocation (min/avg/max) = 2.944 | 2.944 | 2.944 Mbytes
Step Temp E_pair E_mol TotEng Press 
       0         1800   -2220.3392            0   -2101.4457    12358.626 
      10     985.8272   -2166.3679            0   -2101.3259    14166.408 
      20    576.47588   -2138.9353            0   -2101.3087    12042.877 
      30    1024.9341   -2167.4586            0   -2101.3945    7121.8977 
      40    721.62368   -2145.7691            0   -2101.3436    6707.1557 
      50    491.33658   -2129.5841            0   -2101.3058     7283.969 
      60    995.38299   -2161.7355            0   -2101.3809    6445.1769 
      70    944.96148   -2156.8323            0   -2101.3515    9042.5179 
      80    801.20343   -2146.0331            0   -2101.3092      12043.9 
      90    1247.2093    -2173.758            0   -2101.3801    11795.233 
     100    1092.2586   -2161.3456            0   -2101.3466     12303.82 
Loop time of 0.0317461 on 8 procs for 100 steps with 512 atoms

Performance: 272.159 ns/day, 0.088 hours/ns, 3149.991 timesteps/s
99.3% CPU use with 8 MPI tasks x no OpenMP threads

MPI task timing breakdown:
Section |  min time  |  avg time  |  max time  |%varavg| %total
---------------------------------------------------------------
Pair    | 0.019887   | 0.021448   | 0.025114   |   1.1 | 67.56
Neigh   | 0.00024224 | 0.00025848 | 0.00029045 |   0.0 |  0.81
Comm    | 0.0050996  | 0.0087773  | 0.010315   |   1.8 | 27.65
Output  | 0.00024028 | 0.00025521 | 0.00029356 |   0.0 |  0.80
Modify  | 0.00059339 | 0.00065172 | 0.00069243 |   0.0 |  2.05
Other   |            | 0.0003551  |            |       |  1.12

Nlocal:    64 ave 68 max 60 min
Histogram: 1 1 0 1 0 2 1 0 1 1
Nghost:    363 ave 367 max 359 min
Histogram: 1 1 0 1 0 2 1 0 1 1
Neighs:    0 ave 0 max 0 min
Histogram: 8 0 0 0 0 0 0 0 0 0
FullNghs:  1761.5 ave 1875 max 1654 min
Histogram: 1 1 0 1 2 0 1 0 1 1

Total # of neighbors = 14092
Ave neighs/atom = 27.5234
Neighbor list builds = 2
Dangerous builds = 0

write_restart	restart.equil

# Test Stillinger-Weber model for Cd/Te/Zn/Se/Hg/S

clear
read_restart	restart.equil
  restoring atom style atomic from restart
  orthogonal box = (0 0 0) to (21.724 21.724 21.724)
  2 by 2 by 2 MPI processor grid
  pair style sw stores no restart info
  512 atoms

pair_style      sw
pair_coeff 	* * CdTeZnSeHgS0.sw Cd Zn Hg Cd Te S Se Te
Reading potential file CdTeZnSeHgS0.sw with DATE: 2013-08-09

thermo          10
fix             1 all nvt temp $t $t 0.1
fix             1 all nvt temp 1800 $t 0.1
fix             1 all nvt temp 1800 1800 0.1
Resetting global fix info from restart file:
  fix style: nvt, fix ID: 1
fix_modify 	1 energy yes
timestep        1.0e-3
neighbor        1.0 bin
neigh_modify    every 1 delay 10 check yes
run             100
All restart file global fix info was re-assigned
Neighbor list info ...
  update every 1 steps, delay 10 steps, check yes
  max neighbors/atom: 2000, page size: 100000
  master list distance cutoff = 5.632
  ghost atom cutoff = 5.632
  binsize = 2.816, bins = 8 8 8
  1 neighbor lists, perpetual/occasional/extra = 1 0 0
  (1) pair sw, perpetual
      attributes: full, newton on
      pair build: full/bin/atomonly
      stencil: full/bin/3d
      bin: standard
Per MPI rank memory allocation (min/avg/max) = 2.696 | 2.697 | 2.7 Mbytes
Step Temp E_pair E_mol TotEng Press 
     100    1092.2586   -620.34261            0   -560.34369    463005.45 
     110    1545.8746    -648.3267            0   -560.42733    463129.79 
     120    1984.2625   -674.39443            0   -560.50229     486633.4 
     130    1149.3202   -617.13725            0   -560.32684    516160.08 
     140    1824.9087   -659.93739            0   -560.46187    486872.55 
     150    1902.5704   -662.49972            0   -560.46263    466075.84 
     160    1055.3744   -604.81806            0   -560.32152     473848.2 
     170    1679.5387   -644.33516            0   -560.44024     471507.4 
     180    1843.5734   -652.57504            0   -560.44591    490075.15 
     190    1351.2065   -618.06382            0   -560.34833    509986.57 
     200    1875.8687   -650.71455            0   -560.43689     490002.3 
Loop time of 0.0780137 on 8 procs for 100 steps with 512 atoms

Performance: 110.750 ns/day, 0.217 hours/ns, 1281.826 timesteps/s
98.9% CPU use with 8 MPI tasks x no OpenMP threads

MPI task timing breakdown:
Section |  min time  |  avg time  |  max time  |%varavg| %total
---------------------------------------------------------------
Pair    | 0.064936   | 0.06759    | 0.071178   |   0.7 | 86.64
Neigh   | 0.00049811 | 0.00050744 | 0.00051499 |   0.0 |  0.65
Comm    | 0.0052413  | 0.0088242  | 0.011481   |   2.0 | 11.31
Output  | 0.00021676 | 0.0002238  | 0.00025742 |   0.0 |  0.29
Modify  | 0.00055402 | 0.00057866 | 0.00060047 |   0.0 |  0.74
Other   |            | 0.0002896  |            |       |  0.37

Nlocal:    64 ave 67 max 61 min
Histogram: 1 1 0 1 0 2 1 0 1 1
Nghost:    541.75 ave 545 max 537 min
Histogram: 1 0 1 0 0 2 0 2 0 2
Neighs:    0 ave 0 max 0 min
Histogram: 8 0 0 0 0 0 0 0 0 0
FullNghs:  2171.75 ave 2273 max 2070 min
Histogram: 1 0 1 1 2 0 1 1 0 1

Total # of neighbors = 17374
Ave neighs/atom = 33.9336
Neighbor list builds = 3
Dangerous builds = 0

# Test Vashishta model for In/P

clear
read_restart	restart.equil
  restoring atom style atomic from restart
  orthogonal box = (0 0 0) to (21.724 21.724 21.724)
  2 by 2 by 2 MPI processor grid
  pair style sw stores no restart info
  512 atoms

pair_style      vashishta
pair_coeff 	* * InP.vashishta In In In In P P P P
Reading potential file InP.vashishta with DATE: 2015-10-14

thermo          10
fix             1 all nvt temp $t $t 0.1
fix             1 all nvt temp 1800 $t 0.1
fix             1 all nvt temp 1800 1800 0.1
Resetting global fix info from restart file:
  fix style: nvt, fix ID: 1
fix_modify 	1 energy yes
timestep        1.0e-3
neighbor        1.0 bin
neigh_modify    every 1 delay 10 check yes
run             100
All restart file global fix info was re-assigned
Neighbor list info ...
  update every 1 steps, delay 10 steps, check yes
  max neighbors/atom: 2000, page size: 100000
  master list distance cutoff = 7
  ghost atom cutoff = 7
  binsize = 3.5, bins = 7 7 7
  1 neighbor lists, perpetual/occasional/extra = 1 0 0
  (1) pair vashishta, perpetual
      attributes: full, newton on
      pair build: full/bin/atomonly
      stencil: full/bin/3d
      bin: standard
Per MPI rank memory allocation (min/avg/max) = 2.715 | 2.715 | 2.715 Mbytes
Step Temp E_pair E_mol TotEng Press 
     100    1092.2586   -1493.5844            0   -1433.5855    357650.98 
     110     1303.426   -1505.6928            0   -1433.6649    346218.18 
     120    1401.8763   -1509.6693            0   -1433.6563    335260.51 
     130    1023.9309   -1482.6638            0   -1433.5664    339842.37 
     140    1493.7914   -1511.5478            0   -1433.6666    312989.02 
     150    1250.4863   -1492.9346            0   -1433.5914    307074.37 
     160    1258.8669   -1491.4469            0   -1433.5975    290895.37 
     170    1570.6486   -1509.5004            0   -1433.6196    261950.67 
     180    1439.9731   -1498.3335            0   -1433.5776    246570.38 
     190    1449.9434   -1496.7195            0   -1433.5933    225036.77 
     200    1428.1557   -1492.9374            0   -1433.5815    205814.51 
Loop time of 0.0450452 on 8 procs for 100 steps with 512 atoms

Performance: 191.807 ns/day, 0.125 hours/ns, 2219.992 timesteps/s
100.0% CPU use with 8 MPI tasks x no OpenMP threads

MPI task timing breakdown:
Section |  min time  |  avg time  |  max time  |%varavg| %total
---------------------------------------------------------------
Pair    | 0.031811   | 0.033504   | 0.0361     |   0.8 | 74.38
Neigh   | 0.00089852 | 0.00095047 | 0.00099678 |   0.0 |  2.11
Comm    | 0.0068712  | 0.0094986  | 0.011255   |   1.6 | 21.09
Output  | 0.00022282 | 0.00022832 | 0.00025908 |   0.0 |  0.51
Modify  | 0.0005723  | 0.00058943 | 0.00061284 |   0.0 |  1.31
Other   |            | 0.0002747  |            |       |  0.61

Nlocal:    64 ave 69 max 60 min
Histogram: 2 0 0 0 3 1 1 0 0 1
Nghost:    729 ave 735 max 719 min
Histogram: 1 0 0 0 3 0 0 0 1 3
Neighs:    0 ave 0 max 0 min
Histogram: 8 0 0 0 0 0 0 0 0 0
FullNghs:  4592.75 ave 4957 max 4254 min
Histogram: 2 0 0 0 3 0 1 1 0 1

Total # of neighbors = 36742
Ave neighs/atom = 71.7617
Neighbor list builds = 4
Dangerous builds = 0

# Test Tersoff model for B/N/C

clear
read_restart	restart.equil
  restoring atom style atomic from restart
  orthogonal box = (0 0 0) to (21.724 21.724 21.724)
  2 by 2 by 2 MPI processor grid
  pair style sw stores no restart info
  512 atoms

variable	fac equal 0.6
change_box 	all x scale ${fac} y scale ${fac} z scale ${fac} remap
change_box 	all x scale 0.6 y scale ${fac} z scale ${fac} remap
change_box 	all x scale 0.6 y scale 0.6 z scale ${fac} remap
change_box 	all x scale 0.6 y scale 0.6 z scale 0.6 remap
  orthogonal box = (4.3448 0 0) to (17.3792 21.724 21.724)
  orthogonal box = (4.3448 4.3448 0) to (17.3792 17.3792 21.724)
  orthogonal box = (4.3448 4.3448 4.3448) to (17.3792 17.3792 17.3792)

pair_style      tersoff
pair_coeff 	* * BNC.tersoff N N N C B B C B
Reading potential file BNC.tersoff with DATE: 2013-03-21

thermo          10
fix             1 all nvt temp $t $t 0.1
fix             1 all nvt temp 1800 $t 0.1
fix             1 all nvt temp 1800 1800 0.1
Resetting global fix info from restart file:
  fix style: nvt, fix ID: 1
fix_modify 	1 energy yes
timestep        1.0e-3
neighbor        1.0 bin
neigh_modify    every 1 delay 10 check yes
run             100
All restart file global fix info was re-assigned
Neighbor list info ...
  update every 1 steps, delay 10 steps, check yes
  max neighbors/atom: 2000, page size: 100000
  master list distance cutoff = 3.1
  ghost atom cutoff = 3.1
  binsize = 1.55, bins = 9 9 9
  1 neighbor lists, perpetual/occasional/extra = 1 0 0
  (1) pair tersoff, perpetual
      attributes: full, newton on
      pair build: full/bin/atomonly
      stencil: full/bin/3d
      bin: standard
Per MPI rank memory allocation (min/avg/max) = 2.694 | 2.694 | 2.694 Mbytes
Step Temp E_pair E_mol TotEng Press 
     100    1092.2586   -3252.5624            0   -3192.5635    1917107.1 
     110    1874.3545   -3302.3264            0   -3193.0157    1882165.6 
     120    1110.6197   -3249.4137            0   -3192.6455    1938665.2 
     130    1366.0615   -3263.9811            0   -3192.7364    1885702.7 
     140    1510.9529   -3271.5955            0    -3192.836    1869143.2 
     150    1406.7446   -3262.6018            0   -3193.0105    1923688.2 
     160    1320.1149   -3253.4996            0    -3192.033    1908559.7 
     170    1713.5907   -3276.9112            0   -3191.8119    1904045.5 
     180    1437.4025   -3256.8913            0   -3192.2568      1908104 
     190    1459.7927   -3255.9113            0   -3192.0498    1917309.5 
     200    1571.9399   -3260.9024            0   -3191.9047    1907346.3 
Loop time of 0.0377192 on 8 procs for 100 steps with 512 atoms

Performance: 229.061 ns/day, 0.105 hours/ns, 2651.168 timesteps/s
100.0% CPU use with 8 MPI tasks x no OpenMP threads

MPI task timing breakdown:
Section |  min time  |  avg time  |  max time  |%varavg| %total
---------------------------------------------------------------
Pair    | 0.030282   | 0.03124    | 0.032377   |   0.3 | 82.82
Neigh   | 0.00027461 | 0.00028813 | 0.00030192 |   0.0 |  0.76
Comm    | 0.0039128  | 0.005071   | 0.0060377  |   0.8 | 13.44
Output  | 0.00021677 | 0.00022262 | 0.00025094 |   0.0 |  0.59
Modify  | 0.00054879 | 0.00058202 | 0.00061315 |   0.0 |  1.54
Other   |            | 0.0003157  |            |       |  0.84

Nlocal:    64 ave 68 max 57 min
Histogram: 1 0 1 0 1 0 0 1 1 3
Nghost:    369 ave 377 max 365 min
Histogram: 3 1 1 0 0 1 0 1 0 1
Neighs:    0 ave 0 max 0 min
Histogram: 8 0 0 0 0 0 0 0 0 0
FullNghs:  1825 ave 1929 max 1641 min
Histogram: 1 0 1 0 1 0 0 1 1 3

Total # of neighbors = 14600
Ave neighs/atom = 28.5156
Neighbor list builds = 2
Dangerous builds = 0

# Test Tersoff/Mod model for Si

clear
read_restart	restart.equil
  restoring atom style atomic from restart
  orthogonal box = (0 0 0) to (21.724 21.724 21.724)
  2 by 2 by 2 MPI processor grid
  pair style sw stores no restart info
  512 atoms

pair_style      tersoff/mod
pair_coeff 	* * Si.tersoff.mod Si Si Si Si Si Si Si Si
Reading potential file Si.tersoff.mod with DATE: 2013-07-26

thermo          10
fix             1 all nvt temp $t $t 0.1
fix             1 all nvt temp 1800 $t 0.1
fix             1 all nvt temp 1800 1800 0.1
Resetting global fix info from restart file:
  fix style: nvt, fix ID: 1
fix_modify 	1 energy yes
timestep        1.0e-3
neighbor        1.0 bin
neigh_modify    every 1 delay 10 check yes
run             100
All restart file global fix info was re-assigned
Neighbor list info ...
  update every 1 steps, delay 10 steps, check yes
  max neighbors/atom: 2000, page size: 100000
  master list distance cutoff = 4.3
  ghost atom cutoff = 4.3
  binsize = 2.15, bins = 11 11 11
  1 neighbor lists, perpetual/occasional/extra = 1 0 0
  (1) pair tersoff/mod, perpetual
      attributes: full, newton on
      pair build: full/bin/atomonly
      stencil: full/bin/3d
      bin: standard
Per MPI rank memory allocation (min/avg/max) = 2.696 | 2.696 | 2.696 Mbytes
Step Temp E_pair E_mol TotEng Press 
     100    1092.2586    -2308.123            0   -2248.1241    18100.469 
     110    846.82941   -2290.2193            0   -2248.0929    20410.767 
     120    1079.6383   -2303.7322            0    -2248.136     14489.81 
     130    993.45944   -2295.8884            0    -2248.118     15794.18 
     140    834.96454   -2283.5922            0   -2248.0892     19910.95 
     150    1098.3152    -2299.001            0   -2248.1263    15933.183 
     160    1118.7573   -2297.9538            0   -2248.1241    15338.047 
     170    869.85577   -2279.4601            0   -2248.0863    20313.659 
     180    1047.2066   -2289.1918            0   -2248.1081     18555.06 
     190    1251.6822   -2300.1612            0   -2248.1269    15848.168 
     200    1053.3933   -2284.6118            0   -2248.0939    20336.209 
Loop time of 0.0301071 on 8 procs for 100 steps with 512 atoms

Performance: 286.976 ns/day, 0.084 hours/ns, 3321.481 timesteps/s
100.0% CPU use with 8 MPI tasks x no OpenMP threads

MPI task timing breakdown:
Section |  min time  |  avg time  |  max time  |%varavg| %total
---------------------------------------------------------------
Pair    | 0.023553   | 0.024438   | 0.025375   |   0.4 | 81.17
Neigh   | 0.00033828 | 0.00034857 | 0.0003647  |   0.0 |  1.16
Comm    | 0.003314   | 0.0042533  | 0.0051596  |   0.9 | 14.13
Output  | 0.00020908 | 0.00021579 | 0.000244   |   0.0 |  0.72
Modify  | 0.00054097 | 0.00055999 | 0.00058207 |   0.0 |  1.86
Other   |            | 0.0002915  |            |       |  0.97

Nlocal:    64 ave 70 max 61 min
Histogram: 1 0 3 3 0 0 0 0 0 1
Nghost:    357.25 ave 361 max 351 min
Histogram: 1 0 0 0 0 2 1 1 1 2
Neighs:    0 ave 0 max 0 min
Histogram: 8 0 0 0 0 0 0 0 0 0
FullNghs:  1107.5 ave 1209 max 1039 min
Histogram: 1 0 1 3 1 1 0 0 0 1

Total # of neighbors = 8860
Ave neighs/atom = 17.3047
Neighbor list builds = 3
Dangerous builds = 0

# Test Tersoff/Mod/C model for Si

clear
read_restart	restart.equil
  restoring atom style atomic from restart
  orthogonal box = (0 0 0) to (21.724 21.724 21.724)
  2 by 2 by 2 MPI processor grid
  pair style sw stores no restart info
  512 atoms

pair_style      tersoff/mod/c
pair_coeff 	* * Si.tersoff.modc Si Si Si Si Si Si Si Si
Reading potential file Si.tersoff.modc with DATE: 2016-11-09

thermo          10
fix             1 all nvt temp $t $t 0.1
fix             1 all nvt temp 1800 $t 0.1
fix             1 all nvt temp 1800 1800 0.1
Resetting global fix info from restart file:
  fix style: nvt, fix ID: 1
fix_modify 	1 energy yes
timestep        1.0e-3
neighbor        1.0 bin
neigh_modify    every 1 delay 10 check yes
run             100
All restart file global fix info was re-assigned
Neighbor list info ...
  update every 1 steps, delay 10 steps, check yes
  max neighbors/atom: 2000, page size: 100000
  master list distance cutoff = 4.20569
  ghost atom cutoff = 4.20569
  binsize = 2.10285, bins = 11 11 11
  1 neighbor lists, perpetual/occasional/extra = 1 0 0
  (1) pair tersoff/mod/c, perpetual
      attributes: full, newton on
      pair build: full/bin/atomonly
      stencil: full/bin/3d
      bin: standard
Per MPI rank memory allocation (min/avg/max) = 2.695 | 2.695 | 2.695 Mbytes
Step Temp E_pair E_mol TotEng Press 
     100    1092.2586   -2307.8107            0   -2247.8118    20929.557 
     110    845.31516   -2289.8033            0   -2247.7791    22491.321 
     120    1088.0012   -2303.9677            0   -2247.8234    16789.004 
     130    994.80696   -2295.6483            0   -2247.8086    17475.559 
     140    794.22194   -2280.6137            0   -2247.7723    20307.857 
     150    1077.9161   -2297.4156            0   -2247.8139     16620.77 
     160    1100.8438   -2296.5479            0   -2247.8137    15816.033 
     170    811.00359    -2275.395            0   -2247.7688    20253.561 
     180    1016.8494   -2287.0928            0   -2247.7937     19575.17 
     190    1251.3304   -2300.0228            0   -2247.8192    16813.457 
     200    1007.4272   -2281.4829            0   -2247.7747    21234.045 
Loop time of 0.0587953 on 8 procs for 100 steps with 512 atoms

Performance: 146.951 ns/day, 0.163 hours/ns, 1700.816 timesteps/s
100.0% CPU use with 8 MPI tasks x no OpenMP threads

MPI task timing breakdown:
Section |  min time  |  avg time  |  max time  |%varavg| %total
---------------------------------------------------------------
Pair    | 0.049027   | 0.050538   | 0.052307   |   0.6 | 85.96
Neigh   | 0.00033234 | 0.00034579 | 0.00036837 |   0.0 |  0.59
Comm    | 0.0050423  | 0.0068294  | 0.008318   |   1.5 | 11.62
Output  | 0.0002129  | 0.00022182 | 0.00025057 |   0.0 |  0.38
Modify  | 0.00054386 | 0.0005777  | 0.0006134  |   0.0 |  0.98
Other   |            | 0.0002829  |            |       |  0.48

Nlocal:    64 ave 71 max 60 min
Histogram: 1 3 1 0 1 0 1 0 0 1
Nghost:    337 ave 346 max 326 min
Histogram: 1 0 1 0 1 1 1 1 1 1
Neighs:    0 ave 0 max 0 min
Histogram: 8 0 0 0 0 0 0 0 0 0
FullNghs:  1051.5 ave 1155 max 983 min
Histogram: 1 0 2 2 1 0 1 0 0 1

Total # of neighbors = 8412
Ave neighs/atom = 16.4297
Neighbor list builds = 3
Dangerous builds = 0

Total wall time: 0:00:00
