LAMMPS (4 Jan 2019)
# 2d SRD only test

units		lj
atom_style	atomic
atom_modify	first empty
dimension	2

# create box with big lattice

lattice		sq 0.4
Lattice spacing in x,y,z = 1.58114 1.58114 1.58114
region		box block 0 10 0 10 -0.5 0.5
create_box	1 box
Created orthogonal box = (0 0 -0.790569) to (15.8114 15.8114 0.790569)
  4 by 2 by 1 MPI processor grid

# add SRD particles as hi density lattice

lattice		sq 0.4
Lattice spacing in x,y,z = 1.58114 1.58114 1.58114
region		plane block 0 10 0 10 -0.001 0.001
lattice		sq 85.0
Lattice spacing in x,y,z = 0.108465 0.108465 0.108465
create_atoms	1 region plane
Created 21316 atoms
  Time spent = 0.00290436 secs

group		empty type 2
0 atoms in group empty

mass		1 0.01
velocity	all create 1.0 593849 loop geom

# settings - need dummy empty group to enable no communication

neighbor	0.3 bin
neigh_modify	delay 1 every 1 check no

comm_modify	group empty

# timestep is big and SRD frequency is 1

timestep	0.02

fix	        1 all srd 1 NULL 1.0 0.25 49894 collision slip
fix		2 all enforce2d

# diagnostics

thermo_style	custom step temp f_1[7] etotal press f_1[3] f_1[4] f_1[6]
thermo		100

#dump		1 all atom 250 dump.srd.pure

#dump		2 all image 250 image.*.jpg type type zoom 1.6 adiam 0.2
#dump_modify	2 pad 4

#dump		3 all movie 250 movie.mpg type type zoom 1.6 adiam 0.2
#dump_modify	3 pad 4

run		5000
SRD info:
  SRD/big particles = 21316 0
  big particle diameter max/min = 0 1e+20
  SRD temperature & lamda = 1 0.2
  SRD max distance & max velocity = 0.8 40
  SRD grid counts: 63 63 1
  SRD grid size: request, actual (xyz) = 0.25, 0.250974 0.250974 1.58114
  SRD per actual grid cell = 5.37062
  SRD viscosity = 0.439647
  big/SRD mass density ratio = 0
  # of rescaled SRD velocities = 0
  ave/max all velocity = 13.2735 24.2873
Per MPI rank memory allocation (min/avg/max) = 2.077 | 2.084 | 2.09 Mbytes
Step Temp f_1[7] TotEng Press f_1[3] f_1[4] f_1[6] 
       0            1            0   0.99995309        85.26            0            0            0 
     100   0.97954753         3969   0.97950157    83.516222            0            0            0 
     200   0.96097186         3969   0.96092677    81.932461            0            0            0 
     300   0.94625125         3969   0.94620686    80.677381            0            0            0 
     400   0.93154927         3969   0.93150556     79.42389            0            0            0 
     500   0.91824513         3969   0.91820205     78.28958            0            0            0 
     600   0.90867556         3969   0.90863293    77.473679            0            0            0 
     700   0.89869118         3969   0.89864902     76.62241            0            0            0 
     800   0.88962551         3969   0.88958378    75.849471            0            0            0 
     900   0.88146037         3969   0.88141901    75.153311            0            0            0 
    1000   0.87531878         3969   0.87527772     74.62968            0            0            0 
    1100   0.86906153         3969   0.86902076    74.096186            0            0            0 
    1200   0.86261043         3969   0.86256996    73.546165            0            0            0 
    1300   0.85654778         3969    0.8565076    73.029264            0            0            0 
    1400    0.8499285         3969   0.84988863    72.464904            0            0            0 
    1500   0.84445127         3969   0.84441166    71.997916            0            0            0 
    1600   0.83927333         3969   0.83923395    71.556444            0            0            0 
    1700   0.83499771         3969   0.83495854    71.191905            0            0            0 
    1800   0.83089954         3969   0.83086056    70.842495            0            0            0 
    1900   0.82685867         3969   0.82681988     70.49797            0            0            0 
    2000   0.82313307         3969   0.82309445    70.180326            0            0            0 
    2100   0.81958925         3969    0.8195508     69.87818            0            0            0 
    2200   0.81676371         3969   0.81672539    69.637274            0            0            0 
    2300    0.8136547         3969   0.81361653    69.372199            0            0            0 
    2400   0.81021236         3969   0.81017435    69.078706            0            0            0 
    2500   0.80735475         3969   0.80731688    68.835066            0            0            0 
    2600   0.80459145         3969   0.80455371    68.599467            0            0            0 
    2700   0.80189303         3969   0.80185541    68.369399            0            0            0 
    2800   0.79876779         3969   0.79873031    68.102942            0            0            0 
    2900   0.79597464         3969    0.7959373    67.864798            0            0            0 
    3000   0.79290964         3969   0.79287244    67.603476            0            0            0 
    3100    0.7901796         3969   0.79014253    67.370713            0            0            0 
    3200   0.78764434         3969   0.78760738    67.154556            0            0            0 
    3300   0.78529466         3969   0.78525782    66.954223            0            0            0 
    3400   0.78295209         3969   0.78291536    66.754495            0            0            0 
    3500   0.78054901         3969   0.78051239    66.549609            0            0            0 
    3600    0.7782991         3969   0.77826259    66.357781            0            0            0 
    3700   0.77684263         3969   0.77680619    66.233603            0            0            0 
    3800   0.77487708         3969   0.77484073     66.06602            0            0            0 
    3900   0.77310442         3969   0.77306815    65.914883            0            0            0 
    4000   0.77133298         3969   0.77129679     65.76385            0            0            0 
    4100   0.76981029         3969   0.76977417    65.634025            0            0            0 
    4200   0.76804338         3969   0.76800735    65.483379            0            0            0 
    4300   0.76609359         3969   0.76605765     65.31714            0            0            0 
    4400   0.76491715         3969   0.76488126    65.216836            0            0            0 
    4500   0.76275787         3969   0.76272208    65.032736            0            0            0 
    4600   0.76204163         3969   0.76200588    64.971669            0            0            0 
    4700   0.76083224         3969   0.76079655    64.868557            0            0            0 
    4800    0.7594188         3969   0.75938317    64.748047            0            0            0 
    4900   0.75756275         3969   0.75752721      64.5898            0            0            0 
    5000   0.75630288         3969    0.7562674    64.482384            0            0            0 
Loop time of 1.33236 on 8 procs for 5000 steps with 21316 atoms

Performance: 6484738.700 tau/day, 3752.742 timesteps/s
97.7% CPU use with 8 MPI tasks x no OpenMP threads

MPI task timing breakdown:
Section |  min time  |  avg time  |  max time  |%varavg| %total
---------------------------------------------------------------
Pair    | 0          | 0          | 0          |   0.0 |  0.00
Neigh   | 0.00039497 | 0.00045333 | 0.00058441 |   0.0 |  0.03
Comm    | 0.34822    | 0.35809    | 0.36343    |   0.8 | 26.88
Output  | 0.0019236  | 0.0019838  | 0.0021665  |   0.2 |  0.15
Modify  | 0.87309    | 0.87499    | 0.87903    |   0.2 | 65.67
Other   |            | 0.09685    |            |       |  7.27

Nlocal:    2664.5 ave 2758 max 2578 min
Histogram: 1 0 1 2 1 1 0 0 0 2
Nghost:    0 ave 0 max 0 min
Histogram: 8 0 0 0 0 0 0 0 0 0
Neighs:    0 ave 0 max 0 min
Histogram: 8 0 0 0 0 0 0 0 0 0

Total # of neighbors = 0
Ave neighs/atom = 0
Neighbor list builds = 5000
Dangerous builds not checked

Please see the log.cite file for references relevant to this simulation

Total wall time: 0:00:01
