LAMMPS (4 Jan 2019)
# 3d metal shear simulation

units		metal
boundary	s s p

atom_style	atomic
lattice		fcc 3.52
Lattice spacing in x,y,z = 3.52 3.52 3.52
region		box block 0 16.0 0 10.0 0 2.828427
create_box	3 box
Created orthogonal box = (0 0 0) to (56.32 35.2 9.95606)
  4 by 2 by 1 MPI processor grid

lattice		fcc 3.52 orient	x 1 0 0 orient y 0 1 1 orient z 0 -1 1 		origin 0.5 0 0
Lattice spacing in x,y,z = 3.52 4.97803 4.97803
create_atoms	1 box
Created 1912 atoms
  Time spent = 0.000832077 secs

pair_style	eam
pair_coeff	* * Ni_u3.eam
Reading potential file Ni_u3.eam with DATE: 2007-06-11

neighbor	0.3 bin
neigh_modify	delay 5

region		lower block INF INF INF 0.9 INF INF
region		upper block INF INF 6.1 INF INF INF
group		lower region lower
264 atoms in group lower
group		upper region upper
264 atoms in group upper
group		boundary union lower upper
528 atoms in group boundary
group		mobile subtract all boundary
1384 atoms in group mobile

set		group lower type 2
  264 settings made for type
set		group upper type 3
  264 settings made for type

# void

#region		void cylinder z 8 5 2.5 INF INF
#delete_atoms	region void

# temp controllers

compute		new3d mobile temp
compute		new2d mobile temp/partial 0 1 1

# equilibrate

velocity	mobile create 300.0 5812775 temp new3d
fix		1 all nve
fix		2 boundary setforce 0.0 0.0 0.0

fix		3 mobile temp/rescale 10 300.0 300.0 10.0 1.0
fix_modify	3 temp new3d

thermo		25
thermo_modify	temp new3d
WARNING: Temperature for thermo pressure is not for group all (../thermo.cpp:488)

timestep	0.001
run		100
Neighbor list info ...
  update every 1 steps, delay 5 steps, check yes
  max neighbors/atom: 2000, page size: 100000
  master list distance cutoff = 5.1
  ghost atom cutoff = 5.1
  binsize = 2.55, bins = 23 14 4
  1 neighbor lists, perpetual/occasional/extra = 1 0 0
  (1) pair eam, perpetual
      attributes: half, newton on
      pair build: half/bin/atomonly/newton
      stencil: half/bin/3d/newton
      bin: standard
Per MPI rank memory allocation (min/avg/max) = 3.337 | 3.341 | 3.345 Mbytes
Step Temp E_pair E_mol TotEng Press Volume 
       0          300   -8317.4367            0   -8263.8067   -7100.7667     19547.02 
      25    219.86289   -8272.3133            0   -8233.0091    5323.5649    19605.315 
      50          300   -8237.6825            0   -8184.0525    13902.283    19658.714 
      75    295.87359   -8231.6345            0   -8178.7422    13994.487    19713.479 
     100          300   -8248.3565            0   -8194.7264    8161.7888     19795.29 
Loop time of 0.0411367 on 8 procs for 100 steps with 1912 atoms

Performance: 210.031 ns/day, 0.114 hours/ns, 2430.917 timesteps/s
98.9% CPU use with 8 MPI tasks x no OpenMP threads

MPI task timing breakdown:
Section |  min time  |  avg time  |  max time  |%varavg| %total
---------------------------------------------------------------
Pair    | 0.031216   | 0.03307    | 0.035313   |   0.7 | 80.39
Neigh   | 0.0014705  | 0.0016201  | 0.0017795  |   0.2 |  3.94
Comm    | 0.0031831  | 0.005087   | 0.0071874  |   1.6 | 12.37
Output  | 9.9967e-05 | 0.00011231 | 0.00014649 |   0.0 |  0.27
Modify  | 0.00043436 | 0.0004865  | 0.00058719 |   0.0 |  1.18
Other   |            | 0.0007604  |            |       |  1.85

Nlocal:    239 ave 251 max 230 min
Histogram: 3 0 0 1 1 1 0 0 1 1
Nghost:    730 ave 843 max 623 min
Histogram: 4 0 0 0 0 0 0 0 0 4
Neighs:    5756.12 ave 6395 max 5299 min
Histogram: 3 0 1 0 0 0 2 1 0 1

Total # of neighbors = 46049
Ave neighs/atom = 24.0842
Neighbor list builds = 5
Dangerous builds = 0

# shear

velocity	upper set 1.0 0 0
velocity	mobile ramp vx 0.0 1.0 y 1.4 8.6 sum yes

unfix		3
fix		3 mobile temp/rescale 10 300.0 300.0 10.0 1.0
fix_modify	3 temp new2d

#dump		1 all atom 100 dump.shear

#dump		2 all image 100 image.*.jpg type type #		axes yes 0.8 0.02 view 0 0 zoom 1.5 up 0 1 0 adiam 2.0
#dump_modify	2 pad 4

#dump		3 all movie 100 movie.mpg type type #		axes yes 0.8 0.02 view 0 0 zoom 1.5 up 0 1 0 adiam 2.0
#dump_modify	3 pad 4

thermo		100
thermo_modify	temp new2d
WARNING: Temperature for thermo pressure is not for group all (../thermo.cpp:488)

reset_timestep	0
run		3000
Per MPI rank memory allocation (min/avg/max) = 3.337 | 3.341 | 3.346 Mbytes
Step Temp E_pair E_mol TotEng Press Volume 
       0    300.09496   -8248.3565            0   -8212.5918    7197.5576    19795.975 
     100    291.57007   -8256.2782            0   -8221.5295    3756.0918    19864.971 
     200    294.56295   -8254.7232            0   -8219.6178    2500.1322    19942.662 
     300    293.31075   -8250.6451            0    -8215.689    1381.9231    19990.964 
     400    302.87751   -8246.0604            0   -8209.9641    356.16638    20121.656 
     500    307.86064   -8241.3449            0   -8204.6547    635.08157      20195.1 
     600    294.25629   -8231.7918            0    -8196.723    2667.4172    20294.581 
     700          300   -8219.6465            0   -8183.8932    6226.7309    20391.039 
     800    301.33969   -8210.9724            0   -8175.0594    8418.4794    20511.962 
     900    296.05949   -8195.8302            0   -8160.5465    11334.118     20637.77 
    1000    304.26958   -8180.7094            0   -8144.4472    15489.873    20752.586 
    1100          300     -8167.38            0   -8131.6266    19792.845    20889.388 
    1200          300   -8154.2567            0   -8118.5034    22190.191    20994.432 
    1300          300   -8141.6309            0   -8105.8776    23302.253    21130.013 
    1400    308.30298   -8135.1804            0   -8098.4375    24212.016    21257.043 
    1500          300    -8129.569            0   -8093.8156    24520.839    21369.416 
    1600          300    -8125.499            0   -8089.7456    21935.619     21500.11 
    1700          300   -8134.3788            0   -8098.6254     17436.69    21616.147 
    1800          300   -8153.5517            0   -8117.7984    11712.347    21745.621 
    1900          300    -8154.042            0   -8118.2886    10329.656    21866.544 
    2000          300   -8152.8374            0    -8117.084    8973.2515    21983.802 
    2100          300   -8157.2794            0   -8121.5261    5872.9534    22112.054 
    2200    308.33149   -8158.1285            0   -8121.3822    2761.3238    22225.648 
    2300    303.23439   -8161.0477            0   -8124.9089    269.33135     22345.35 
    2400          300   -8166.4991            0   -8130.7458   -1827.0095     22472.38 
    2500          300   -8170.8812            0   -8135.1279   -6071.2604    22589.639 
    2600          300   -8169.8087            0   -8134.0554   -7019.7201    22722.776 
    2700    296.36569   -8158.2961            0   -8122.9759    -4837.756    22840.035 
    2800    300.17465   -8156.3757            0   -8120.6015   -6163.6685    22953.629 
    2900          300   -8155.9036            0   -8120.1502   -7529.6746    23086.767 
    3000     298.4637    -8152.621            0   -8117.0508    -8097.366    23210.132 
Loop time of 1.42112 on 8 procs for 3000 steps with 1912 atoms

Performance: 182.391 ns/day, 0.132 hours/ns, 2111.009 timesteps/s
100.0% CPU use with 8 MPI tasks x no OpenMP threads

MPI task timing breakdown:
Section |  min time  |  avg time  |  max time  |%varavg| %total
---------------------------------------------------------------
Pair    | 0.96424    | 1.0729     | 1.2047     |   6.6 | 75.50
Neigh   | 0.061772   | 0.072871   | 0.086955   |   2.9 |  5.13
Comm    | 0.10149    | 0.2259     | 0.32109    |  13.4 | 15.90
Output  | 0.00074158 | 0.00077105 | 0.00086442 |   0.0 |  0.05
Modify  | 0.013608   | 0.016818   | 0.024325   |   2.9 |  1.18
Other   |            | 0.03184    |            |       |  2.24

Nlocal:    239 ave 277 max 167 min
Histogram: 2 0 0 0 0 0 0 2 2 2
Nghost:    733.5 ave 911 max 528 min
Histogram: 2 0 2 0 0 0 0 0 1 3
Neighs:    5610.75 ave 6780 max 3814 min
Histogram: 2 0 0 0 0 0 1 2 2 1

Total # of neighbors = 44886
Ave neighs/atom = 23.4759
Neighbor list builds = 222
Dangerous builds = 0
Total wall time: 0:00:01
