LAMMPS (4 Jan 2019)
# This example demonstrates the use of various fix qeq variants with pair reax/c
# You can comment in/out various versions below
#
# 1) Fix qeq/shielded generates the same results compared to fix qeq/reax when
#    used with pair_style reax/c, provided that the QEq parameters are the same.
#
# 2) Fix qeq/point and fix qeq/dynamic generate comparable results provided that
#    the QEq parameters are the same.  These two styles can also be used with
#    pair_style reax/c.

units		real
atom_style	charge

read_data	data.CHO
  orthogonal box = (0 0 0) to (25 25 25)
  2 by 2 by 2 MPI processor grid
  reading atoms ...
  105 atoms

pair_style	reax/c NULL checkqeq no
pair_coeff	* * ffield.reax.cho H C O
Reading potential file ffield.reax.cho with DATE: 2011-02-18

neighbor	1 bin
neigh_modify	every 1 delay 0 check yes

group    	type1 type 1
60 atoms in group type1
compute   	charge1 type1 property/atom q
compute   	q1 type1 reduce ave c_charge1
group    	type2 type 2
25 atoms in group type2
compute   	charge2 type2 property/atom q
compute   	q2 type2 reduce ave c_charge2
group    	type3 type 3
20 atoms in group type3
compute   	charge3 type3 property/atom q
compute   	q3 type3 reduce ave c_charge3
variable   	qtot equal count(type1)*c_q1+count(type2)*c_q2+count(type3)*c_q3

thermo_style  	custom step pe c_q1 c_q2 c_q3 v_qtot
thermo     	1

velocity  	all create 300.0 1281937
fix		1 all nve

fix             2 all qeq/reax 1 0.0 10.0 1e-6 param.qeq.reax
#fix             2 all qeq/shielded 1 10.0 1e-6 400 param.qeq1
#fix             2 all qeq/point 1 10.0 1e-6 400 param.qeq1
#fix             2 all qeq/dynamic 1 10.0 1e-3 100 param.qeq1

timestep	0.25

run		10
Neighbor list info ...
  update every 1 steps, delay 0 steps, check yes
  max neighbors/atom: 2000, page size: 100000
  master list distance cutoff = 11
  ghost atom cutoff = 11
  binsize = 5.5, bins = 5 5 5
  2 neighbor lists, perpetual/occasional/extra = 2 0 0
  (1) pair reax/c, perpetual
      attributes: half, newton off, ghost
      pair build: half/bin/newtoff/ghost
      stencil: half/ghost/bin/3d/newtoff
      bin: standard
  (2) fix qeq/reax, perpetual, copy from (1)
      attributes: half, newton off, ghost
      pair build: copy
      stencil: none
      bin: none
Per MPI rank memory allocation (min/avg/max) = 8.947 | 10 | 11.32 Mbytes
Step PotEng c_q1 c_q2 c_q3 v_qtot 
       0   -10226.557  0.095633884   -0.1565875 -0.091167273 -4.4408921e-16 
       1   -10225.799  0.095650213  -0.15662332  -0.09117149            0 
       2   -10223.656  0.095669699  -0.15666704 -0.091175299            0 
       3   -10220.276  0.095691319  -0.15671621 -0.091178694 -1.7763568e-15 
       4   -10215.894  0.095714072  -0.15676821 -0.091181955 1.3322676e-15 
       5   -10210.804  0.095734092  -0.15681452  -0.09118412            0 
       6   -10205.342  0.095750812  -0.15685347 -0.091185605 -4.4408921e-16 
       7   -10199.848  0.095762294  -0.15687991  -0.09118699 -2.220446e-16 
       8   -10194.646  0.095766683  -0.15689057  -0.09118683 -1.3322676e-15 
       9   -10190.016  0.095761147  -0.15687806 -0.091185867            0 
      10   -10186.168  0.095746988  -0.15684572 -0.091183816 -1.3322676e-15 
Loop time of 0.0200943 on 8 procs for 10 steps with 105 atoms

Performance: 10.749 ns/day, 2.233 hours/ns, 497.654 timesteps/s
98.2% CPU use with 8 MPI tasks x no OpenMP threads

MPI task timing breakdown:
Section |  min time  |  avg time  |  max time  |%varavg| %total
---------------------------------------------------------------
Pair    | 0.0058178  | 0.0081997  | 0.0101     |   1.8 | 40.81
Neigh   | 0          | 0          | 0          |   0.0 |  0.00
Comm    | 0.00046199 | 0.0023546  | 0.0047486  |   3.4 | 11.72
Output  | 0.0004776  | 0.00049117 | 0.00052818 |   0.0 |  2.44
Modify  | 0.0089511  | 0.0089702  | 0.0090085  |   0.0 | 44.64
Other   |            | 7.85e-05   |            |       |  0.39

Nlocal:    13.125 ave 31 max 2 min
Histogram: 2 1 2 0 0 1 0 1 0 1
Nghost:    216.625 ave 307 max 137 min
Histogram: 2 0 0 0 4 0 0 0 0 2
Neighs:    525.5 ave 1380 max 48 min
Histogram: 2 2 1 0 0 1 0 1 0 1

Total # of neighbors = 4204
Ave neighs/atom = 40.0381
Neighbor list builds = 0
Dangerous builds = 0

Please see the log.cite file for references relevant to this simulation

Total wall time: 0:00:00
