LAMMPS (30 Jul 2021)
# This example demonstrates the use of various fix qeq variants with pair reax/c
# You can comment in/out various versions below
#
# 1) Fix qeq/shielded generates the same results compared to fix qeq/reax when
#    used with pair_style reax/c, provided that the QEq parameters are the same.
#
# 2) Fix qeq/point and fix qeq/dynamic generate comparable results provided that
#    the QEq parameters are the same.  These two styles can also be used with
#    pair_style reax/c.

units		real
atom_style	charge

read_data	data.CHO
Reading data file ...
  orthogonal box = (0.0000000 0.0000000 0.0000000) to (25.000000 25.000000 25.000000)
  2 by 2 by 2 MPI processor grid
  reading atoms ...
  105 atoms
  read_data CPU = 0.002 seconds

pair_style	reax/c NULL checkqeq no
pair_coeff	* * ffield.reax.cho H C O
Reading potential file ffield.reax.cho with DATE: 2011-02-18

neighbor	1 bin
neigh_modify	every 1 delay 0 check yes

group    	type1 type 1
60 atoms in group type1
compute   	charge1 type1 property/atom q
compute   	q1 type1 reduce ave c_charge1
group    	type2 type 2
25 atoms in group type2
compute   	charge2 type2 property/atom q
compute   	q2 type2 reduce ave c_charge2
group    	type3 type 3
20 atoms in group type3
compute   	charge3 type3 property/atom q
compute   	q3 type3 reduce ave c_charge3
variable   	qtot equal count(type1)*c_q1+count(type2)*c_q2+count(type3)*c_q3

thermo_style  	custom step pe c_q1 c_q2 c_q3 v_qtot
thermo     	1

velocity  	all create 300.0 1281937
fix		1 all nve

fix             2 all qeq/reax 1 0.0 10.0 1e-6 param.qeq.reax
#fix             2 all qeq/shielded 1 10.0 1e-6 400 param.qeq1
#fix             2 all qeq/point 1 10.0 1e-6 400 param.qeq1
#fix             2 all qeq/dynamic 1 10.0 1e-3 100 param.qeq1

timestep	0.25

run		10

CITE-CITE-CITE-CITE-CITE-CITE-CITE-CITE-CITE-CITE-CITE-CITE-CITE

Your simulation uses code contributions which should be cited:

- pair reaxff command:

@Article{Aktulga12,
 author = {H. M. Aktulga, J. C. Fogarty, S. A. Pandit, A. Y. Grama},
 title = {Parallel reactive molecular dynamics: Numerical methods and algorithmic techniques},
 journal = {Parallel Computing},
 year =    2012,
 volume =  38,
 pages =   {245--259}
}

- fix qeq/reaxff command:

@Article{Aktulga12,
 author = {H. M. Aktulga, J. C. Fogarty, S. A. Pandit, A. Y. Grama},
 title = {Parallel reactive molecular dynamics: Numerical methods and algorithmic techniques},
 journal = {Parallel Computing},
 year =    2012,
 volume =  38,
 pages =   {245--259}
}

CITE-CITE-CITE-CITE-CITE-CITE-CITE-CITE-CITE-CITE-CITE-CITE-CITE

Neighbor list info ...
  update every 1 steps, delay 0 steps, check yes
  max neighbors/atom: 2000, page size: 100000
  master list distance cutoff = 11
  ghost atom cutoff = 11
  binsize = 5.5, bins = 5 5 5
  2 neighbor lists, perpetual/occasional/extra = 2 0 0
  (1) pair reax/c, perpetual
      attributes: half, newton off, ghost
      pair build: half/bin/newtoff/ghost
      stencil: full/ghost/bin/3d
      bin: standard
  (2) fix qeq/reax, perpetual, copy from (1)
      attributes: half, newton off, ghost
      pair build: copy
      stencil: none
      bin: none
Per MPI rank memory allocation (min/avg/max) = 8.356 | 9.251 | 10.33 Mbytes
Step PotEng c_q1 c_q2 c_q3 v_qtot 
       0   -10226.557  0.095634063  -0.15658793 -0.091167274 4.4408921e-16 
       1   -10225.799  0.095649716  -0.15662235 -0.091171214 -4.4408921e-16 
       2   -10223.656  0.095669682  -0.15666697 -0.091175334 -8.8817842e-16 
       3   -10220.276  0.095691219  -0.15671591 -0.091178774 -1.7763568e-15 
       4   -10215.894  0.095714203  -0.15676843 -0.091182072 -1.3322676e-15 
       5   -10210.804  0.095733834   -0.1568139 -0.091184127 2.220446e-15 
       6   -10205.342   0.09575146  -0.15685489 -0.091185764 1.110223e-15 
       7   -10199.848  0.095761975  -0.15687943 -0.091186636 6.6613381e-16 
       8   -10194.646  0.095767208  -0.15689155 -0.091187184            0 
       9   -10190.016  0.095760867   -0.1568776 -0.091185598 2.6645353e-15 
      10   -10186.168  0.095748077  -0.15684838  -0.09118376 -4.4408921e-16 
Loop time of 0.0206903 on 8 procs for 10 steps with 105 atoms

Performance: 10.440 ns/day, 2.299 hours/ns, 483.319 timesteps/s
97.6% CPU use with 8 MPI tasks x no OpenMP threads

MPI task timing breakdown:
Section |  min time  |  avg time  |  max time  |%varavg| %total
---------------------------------------------------------------
Pair    | 0.004461   | 0.0073725  | 0.011682   |   2.8 | 35.63
Neigh   | 0          | 0          | 0          |   0.0 |  0.00
Comm    | 0.00041124 | 0.0047089  | 0.0076406  |   3.6 | 22.76
Output  | 0.00051533 | 0.00054682 | 0.00063955 |   0.0 |  2.64
Modify  | 0.0079023  | 0.0079226  | 0.0079793  |   0.0 | 38.29
Other   |            | 0.0001395  |            |       |  0.67

Nlocal:        13.1250 ave          31 max           2 min
Histogram: 2 1 2 0 0 1 0 1 0 1
Nghost:        216.625 ave         307 max         137 min
Histogram: 2 0 0 0 4 0 0 0 0 2
Neighs:        525.500 ave        1380 max          48 min
Histogram: 2 2 1 0 0 1 0 1 0 1

Total # of neighbors = 4204
Ave neighs/atom = 40.038095
Neighbor list builds = 0
Dangerous builds = 0
Total wall time: 0:00:00
