LAMMPS (4 Jan 2019)
# Test of Kawasaki Dynamics on LJ test system

units		metal
#newton off
boundary	p p p

lattice         fcc 1 origin 0.25 0.25 0.25
Lattice spacing in x,y,z = 1 1 1
atom_style	atomic

# indexed atom variables in test 5 need a map

atom_modify     sort 0 0.0 map hash

region          box block 0 10  0 10 0 10
create_box      2 box
Created orthogonal box = (0 0 0) to (10 10 10)
  2 by 2 by 2 MPI processor grid
create_atoms    1 box basis 1 2
Created 4000 atoms
  Time spent = 0.00130811 secs

mass 1 50
mass 2 50

pair_style      lj/cut 2.0
pair_coeff      1 1 0.0 1.0
pair_coeff      1 2 0.0 1.0
pair_coeff      2 2 0.0 1.0

neighbor	0.3 bin
neigh_modify	delay 10

# set the cut-off to 2.5x the cutoff from the potential
comm_modify     cutoff 5.0

# atom radii per type
variable r atom (type==1)*0.1+(type==2)*0.3

# groups
group type1 type 1
3000 atoms in group type1
group type2 type 2
1000 atoms in group type2

thermo 1
# reduce computes
#compute r1 type1 reduce sum c_v1[1]
#compute r2 type2 reduce sum c_v1[1]

#compute v1 all voronoi/atom radius v_r

#
# TEST 1: Sum of all voronoi cells is the simulation cell volume
#

compute v1 all voronoi/atom
dump    d1 all custom 1 dump.voro id type x y z c_v1[1] c_v1[2]
compute r0 all   reduce sum c_v1[1]
thermo_style custom step c_r0
variable t1 equal c_r0
run  0
WARNING: No fixes defined, atoms won't move (../verlet.cpp:55)
Neighbor list info ...
  update every 1 steps, delay 10 steps, check yes
  max neighbors/atom: 2000, page size: 100000
  master list distance cutoff = 2.3
  ghost atom cutoff = 5
  binsize = 1.15, bins = 9 9 9
  1 neighbor lists, perpetual/occasional/extra = 1 0 0
  (1) pair lj/cut, perpetual
      attributes: half, newton on
      pair build: half/bin/atomonly/newton
      stencil: half/bin/3d/newton
      bin: standard
Per MPI rank memory allocation (min/avg/max) = 5.791 | 5.791 | 5.791 Mbytes
Step c_r0 
       0         1000 
Loop time of 4.29861e-06 on 8 procs for 0 steps with 4000 atoms

127.9% CPU use with 8 MPI tasks x no OpenMP threads

MPI task timing breakdown:
Section |  min time  |  avg time  |  max time  |%varavg| %total
---------------------------------------------------------------
Pair    | 0          | 0          | 0          |   0.0 |  0.00
Neigh   | 0          | 0          | 0          |   0.0 |  0.00
Comm    | 0          | 0          | 0          |   0.0 |  0.00
Output  | 0          | 0          | 0          |   0.0 |  0.00
Modify  | 0          | 0          | 0          |   0.0 |  0.00
Other   |            | 4.299e-06  |            |       |100.00

Nlocal:    500 ave 500 max 500 min
Histogram: 8 0 0 0 0 0 0 0 0 0
Nghost:    13000 ave 13000 max 13000 min
Histogram: 8 0 0 0 0 0 0 0 0 0
Neighs:    50000 ave 50000 max 50000 min
Histogram: 8 0 0 0 0 0 0 0 0 0

Total # of neighbors = 400000
Ave neighs/atom = 100
Neighbor list builds = 0
Dangerous builds = 0
print "TEST_1  $(round(abs(v_t1-1000)/10))% Error.  Sum of all voronoi cells is the simulation cell volume"
TEST_1  0% Error.  Sum of all voronoi cells is the simulation cell volume
uncompute v1
uncompute r0
undump    d1

#
# TEST 2: Sum of all only_group voronoi cells is the simulation cell volume
#

compute v1 type2 voronoi/atom only_group
dump    d1 all custom 1 dump.voro id type x y z c_v1[1] c_v1[2]
compute r0 type2   reduce sum c_v1[1]
compute r1 type1   reduce sum c_v1[1]
thermo_style custom step c_r0 c_r1
variable t2a equal c_r0
variable t2b equal c_r1
run  0
WARNING: No fixes defined, atoms won't move (../verlet.cpp:55)
Per MPI rank memory allocation (min/avg/max) = 5.791 | 5.791 | 5.791 Mbytes
Step c_r0 c_r1 
       0         1000            0 
Loop time of 4.11886e-06 on 8 procs for 0 steps with 4000 atoms

139.6% CPU use with 8 MPI tasks x no OpenMP threads

MPI task timing breakdown:
Section |  min time  |  avg time  |  max time  |%varavg| %total
---------------------------------------------------------------
Pair    | 0          | 0          | 0          |   0.0 |  0.00
Neigh   | 0          | 0          | 0          |   0.0 |  0.00
Comm    | 0          | 0          | 0          |   0.0 |  0.00
Output  | 0          | 0          | 0          |   0.0 |  0.00
Modify  | 0          | 0          | 0          |   0.0 |  0.00
Other   |            | 4.119e-06  |            |       |100.00

Nlocal:    500 ave 500 max 500 min
Histogram: 8 0 0 0 0 0 0 0 0 0
Nghost:    13000 ave 13000 max 13000 min
Histogram: 8 0 0 0 0 0 0 0 0 0
Neighs:    50000 ave 50000 max 50000 min
Histogram: 8 0 0 0 0 0 0 0 0 0

Total # of neighbors = 400000
Ave neighs/atom = 100
Neighbor list builds = 0
Dangerous builds = 0
print "TEST_2a $(round(abs(v_t2a-1000)/10))% Error.  Sum of all only_group voronoi cells is the simulation cell volume"
TEST_2a 0% Error.  Sum of all only_group voronoi cells is the simulation cell volume
print "TEST_2b $(round(v_t2b/10))% Error.  Sum of all only_group not included voronoi cells is zero"
TEST_2b 0% Error.  Sum of all only_group not included voronoi cells is zero
uncompute v1
uncompute r0
uncompute r1
undump    d1

#
# TEST 3: Sum of all radius voronoi cells is the simulation cell volume
#

compute v1 all voronoi/atom radius v_r
dump    d1 all custom 1 dump.voro id type x y z c_v1[1] c_v1[2]
compute r0 all   reduce sum c_v1[1]
thermo_style custom step c_r0
variable t3 equal c_r0
run  0
WARNING: No fixes defined, atoms won't move (../verlet.cpp:55)
Per MPI rank memory allocation (min/avg/max) = 5.791 | 5.791 | 5.791 Mbytes
Step c_r0 
       0         1000 
Loop time of 3.94401e-06 on 8 procs for 0 steps with 4000 atoms

139.5% CPU use with 8 MPI tasks x no OpenMP threads

MPI task timing breakdown:
Section |  min time  |  avg time  |  max time  |%varavg| %total
---------------------------------------------------------------
Pair    | 0          | 0          | 0          |   0.0 |  0.00
Neigh   | 0          | 0          | 0          |   0.0 |  0.00
Comm    | 0          | 0          | 0          |   0.0 |  0.00
Output  | 0          | 0          | 0          |   0.0 |  0.00
Modify  | 0          | 0          | 0          |   0.0 |  0.00
Other   |            | 3.944e-06  |            |       |100.00

Nlocal:    500 ave 500 max 500 min
Histogram: 8 0 0 0 0 0 0 0 0 0
Nghost:    13000 ave 13000 max 13000 min
Histogram: 8 0 0 0 0 0 0 0 0 0
Neighs:    50000 ave 50000 max 50000 min
Histogram: 8 0 0 0 0 0 0 0 0 0

Total # of neighbors = 400000
Ave neighs/atom = 100
Neighbor list builds = 0
Dangerous builds = 0
print "TEST_3  $(round(abs(v_t3-1000)/10))% Error.  Sum of all radius voronoi cells is the simulation cell volume"
TEST_3  0% Error.  Sum of all radius voronoi cells is the simulation cell volume
uncompute v1
uncompute r0
undump    d1

#
# TEST 4: Edge histogram tests
#

compute v1 type2 voronoi/atom edge_histo 8
thermo_style custom step c_v1[1] c_v1[2] c_v1[3] c_v1[4] c_v1[5] c_v1[6] c_v1[7]
run  1
WARNING: No fixes defined, atoms won't move (../verlet.cpp:55)
Per MPI rank memory allocation (min/avg/max) = 4.265 | 4.265 | 4.265 Mbytes
Step c_v1[1] c_v1[2] c_v1[3] c_v1[4] c_v1[5] c_v1[6] c_v1[7] 
       0            0            0            0        12000            0            0            0 
       1            0            0            0        12000            0            0            0 
Loop time of 0.311033 on 8 procs for 1 steps with 4000 atoms

Performance: 0.278 ns/day, 86.398 hours/ns, 3.215 timesteps/s
100.0% CPU use with 8 MPI tasks x no OpenMP threads

MPI task timing breakdown:
Section |  min time  |  avg time  |  max time  |%varavg| %total
---------------------------------------------------------------
Pair    | 0.00080812 | 0.00081698 | 0.0008306  |   0.0 |  0.26
Neigh   | 0          | 0          | 0          |   0.0 |  0.00
Comm    | 0.00044478 | 0.00045879 | 0.00046855 |   0.0 |  0.15
Output  | 0.30972    | 0.30973    | 0.30973    |   0.0 | 99.58
Modify  | 5.1607e-07 | 6.429e-07  | 7.5006e-07 |   0.0 |  0.00
Other   |            | 2.858e-05  |            |       |  0.01

Nlocal:    500 ave 500 max 500 min
Histogram: 8 0 0 0 0 0 0 0 0 0
Nghost:    13000 ave 13000 max 13000 min
Histogram: 8 0 0 0 0 0 0 0 0 0
Neighs:    50000 ave 50000 max 50000 min
Histogram: 8 0 0 0 0 0 0 0 0 0

Total # of neighbors = 400000
Ave neighs/atom = 100
Neighbor list builds = 0
Dangerous builds = 0
variable t4a equal (abs(c_v1[4]-12000)+c_v1[1]+c_v1[2]+c_v1[3]+c_v1[5]+c_v1[6]+c_v1[7])/120
print "TEST_4a $(round(v_t4a))% Error.  Edge histogram of a simple cubic lattice (6 sides. 4 edges per side)"
TEST_4a 0% Error.  Edge histogram of a simple cubic lattice (6 sides. 4 edges per side)
uncompute v1
compute v1 all voronoi/atom edge_histo 8
thermo_style custom step c_v1[1] c_v1[2] c_v1[3] c_v1[4] c_v1[5] c_v1[6] c_v1[7]
run  1
WARNING: No fixes defined, atoms won't move (../verlet.cpp:55)
Per MPI rank memory allocation (min/avg/max) = 4.265 | 4.265 | 4.265 Mbytes
Step c_v1[1] c_v1[2] c_v1[3] c_v1[4] c_v1[5] c_v1[6] c_v1[7] 
       1            0            0            0        48000            0            0            0 
       2            0            0            0        48000            0            0            0 
Loop time of 0.333975 on 8 procs for 1 steps with 4000 atoms

Performance: 0.259 ns/day, 92.771 hours/ns, 2.994 timesteps/s
100.0% CPU use with 8 MPI tasks x no OpenMP threads

MPI task timing breakdown:
Section |  min time  |  avg time  |  max time  |%varavg| %total
---------------------------------------------------------------
Pair    | 0.00069481 | 0.00075124 | 0.00081518 |   0.0 |  0.22
Neigh   | 0          | 0          | 0          |   0.0 |  0.00
Comm    | 0.00043313 | 0.00049803 | 0.00055548 |   0.0 |  0.15
Output  | 0.33269    | 0.3327     | 0.3327     |   0.0 | 99.62
Modify  | 5.3109e-07 | 6.0888e-07 | 8.3505e-07 |   0.0 |  0.00
Other   |            | 2.991e-05  |            |       |  0.01

Nlocal:    500 ave 500 max 500 min
Histogram: 8 0 0 0 0 0 0 0 0 0
Nghost:    13000 ave 13000 max 13000 min
Histogram: 8 0 0 0 0 0 0 0 0 0
Neighs:    50000 ave 50000 max 50000 min
Histogram: 8 0 0 0 0 0 0 0 0 0

Total # of neighbors = 400000
Ave neighs/atom = 100
Neighbor list builds = 0
Dangerous builds = 0
variable t4b equal (abs(c_v1[4]-48000)+c_v1[1]+c_v1[2]+c_v1[3]+c_v1[5]+c_v1[6]+c_v1[7])/480
print "TEST_4b $(round(v_t4b))% Error.  Edge histogram of a face centered cubic lattice (12 sides. 4 edges per side)"
TEST_4b 0% Error.  Edge histogram of a face centered cubic lattice (12 sides. 4 edges per side)
uncompute v1

# perturbed fcc lattice
displace_atoms all random 0.01 0.01 0.01 31423
compute v1 all voronoi/atom edge_histo 8 edge_threshold 0.1
thermo_style custom step c_v1[1] c_v1[2] c_v1[3] c_v1[4] c_v1[5] c_v1[6] c_v1[7]
run  1
WARNING: No fixes defined, atoms won't move (../verlet.cpp:55)
Per MPI rank memory allocation (min/avg/max) = 4.265 | 4.265 | 4.265 Mbytes
Step c_v1[1] c_v1[2] c_v1[3] c_v1[4] c_v1[5] c_v1[6] c_v1[7] 
       2            0            0            0        48000            0            0            0 
       3            0            0            0        48000            0            0            0 
Loop time of 0.345872 on 8 procs for 1 steps with 4000 atoms

Performance: 0.250 ns/day, 96.075 hours/ns, 2.891 timesteps/s
100.0% CPU use with 8 MPI tasks x no OpenMP threads

MPI task timing breakdown:
Section |  min time  |  avg time  |  max time  |%varavg| %total
---------------------------------------------------------------
Pair    | 0.00083199 | 0.00090512 | 0.00099055 |   0.0 |  0.26
Neigh   | 0          | 0          | 0          |   0.0 |  0.00
Comm    | 0.00075274 | 0.0008459  | 0.00092778 |   0.0 |  0.24
Output  | 0.34398    | 0.34398    | 0.34399    |   0.0 | 99.45
Modify  | 5.3004e-07 | 6.7687e-07 | 9.0501e-07 |   0.0 |  0.00
Other   |            | 0.0001368  |            |       |  0.04

Nlocal:    500 ave 500 max 500 min
Histogram: 8 0 0 0 0 0 0 0 0 0
Nghost:    13000 ave 13000 max 13000 min
Histogram: 8 0 0 0 0 0 0 0 0 0
Neighs:    50000 ave 50267 max 49717 min
Histogram: 1 0 0 2 0 2 1 1 0 1

Total # of neighbors = 400000
Ave neighs/atom = 100
Neighbor list builds = 0
Dangerous builds = 0
variable t4c equal (abs(c_v1[4]-48000)+c_v1[1]+c_v1[2]+c_v1[3]+c_v1[5]+c_v1[6]+c_v1[7])/480
print "TEST_4c $(round(v_t4c))% Error.  Edge histogram of a perturbed face centered cubic lattice with edge_threshold"
TEST_4c 0% Error.  Edge histogram of a perturbed face centered cubic lattice with edge_threshold
uncompute v1

# bcc lattice
delete_atoms group all
Deleted 4000 atoms, new total = 0
lattice         bcc 1 origin 0.25 0.25 0.25
Lattice spacing in x,y,z = 1 1 1
create_atoms    1 box
Created 2000 atoms
  Time spent = 0.00011083 secs
compute v1 all voronoi/atom edge_histo 8
thermo_style custom step c_v1[1] c_v1[2] c_v1[3] c_v1[4] c_v1[5] c_v1[6] c_v1[7]
run  1
WARNING: No fixes defined, atoms won't move (../verlet.cpp:55)
Per MPI rank memory allocation (min/avg/max) = 4.265 | 4.265 | 4.265 Mbytes
Step c_v1[1] c_v1[2] c_v1[3] c_v1[4] c_v1[5] c_v1[6] c_v1[7] 
       3            0            0            0        12000            0        16000            0 
       4            0            0            0        12000            0        16000            0 
Loop time of 0.150019 on 8 procs for 1 steps with 2000 atoms

Performance: 0.576 ns/day, 41.672 hours/ns, 6.666 timesteps/s
100.0% CPU use with 8 MPI tasks x no OpenMP threads

MPI task timing breakdown:
Section |  min time  |  avg time  |  max time  |%varavg| %total
---------------------------------------------------------------
Pair    | 0.00021405 | 0.00021763 | 0.00021918 |   0.0 |  0.15
Neigh   | 0          | 0          | 0          |   0.0 |  0.00
Comm    | 0.000264   | 0.00026582 | 0.00026916 |   0.0 |  0.18
Output  | 0.14952    | 0.14952    | 0.14952    |   0.0 | 99.67
Modify  | 3.4901e-07 | 4.9139e-07 | 8.4599e-07 |   0.0 |  0.00
Other   |            | 1.5e-05    |            |       |  0.01

Nlocal:    250 ave 250 max 250 min
Histogram: 8 0 0 0 0 0 0 0 0 0
Nghost:    6500 ave 6500 max 6500 min
Histogram: 8 0 0 0 0 0 0 0 0 0
Neighs:    14000 ave 14000 max 14000 min
Histogram: 8 0 0 0 0 0 0 0 0 0

Total # of neighbors = 112000
Ave neighs/atom = 56
Neighbor list builds = 0
Dangerous builds = 0
variable t4d equal (abs(c_v1[4]-12000)+abs(c_v1[6]-16000)+c_v1[1]+c_v1[2]+c_v1[3]+c_v1[5]+c_v1[7])/280
print "TEST_4d $(round(v_t4d))% Error.  Edge histogram of a body centered cubic lattice (truncated octahedron, 6 sides with 4 edges, 8 sides with 6 edges)"
TEST_4d 0% Error.  Edge histogram of a body centered cubic lattice (truncated octahedron, 6 sides with 4 edges, 8 sides with 6 edges)
uncompute v1

# restore fcc lattice
delete_atoms group all
Deleted 2000 atoms, new total = 0
lattice         fcc 1 origin 0.25 0.25 0.25
Lattice spacing in x,y,z = 1 1 1
create_atoms    1 box basis 1 2
Created 4000 atoms
  Time spent = 0.000145418 secs

#
# TEST 5: Occupation analysis
#

print "START5"
START5

# start with pristine lattice
variable i1 equal 13
variable i2 equal 257
compute v1 all voronoi/atom occupation
compute r0 all   reduce sum c_v1[1]
compute r1 all   reduce sum c_v1[2]
variable d5a equal c_v1[${i1}][1]
variable d5a equal c_v1[13][1]
variable d5b equal c_v1[${i2}][1]
variable d5b equal c_v1[257][1]
variable d5c equal c_v1[${i1}][2]
variable d5c equal c_v1[13][2]
variable d5d equal c_v1[${i2}][2]
variable d5d equal c_v1[257][2]
thermo_style custom step c_r0 c_r1 v_d5a v_d5b v_d5c v_d5d

run 0
WARNING: No fixes defined, atoms won't move (../verlet.cpp:55)
Per MPI rank memory allocation (min/avg/max) = 4.265 | 4.265 | 4.265 Mbytes
Step c_r0 c_r1 v_d5a v_d5b v_d5c v_d5d 
       4         4000         4000            1            1            1            1 
Loop time of 3.83388e-06 on 8 procs for 0 steps with 4000 atoms

146.7% CPU use with 8 MPI tasks x no OpenMP threads

MPI task timing breakdown:
Section |  min time  |  avg time  |  max time  |%varavg| %total
---------------------------------------------------------------
Pair    | 0          | 0          | 0          |   0.0 |  0.00
Neigh   | 0          | 0          | 0          |   0.0 |  0.00
Comm    | 0          | 0          | 0          |   0.0 |  0.00
Output  | 0          | 0          | 0          |   0.0 |  0.00
Modify  | 0          | 0          | 0          |   0.0 |  0.00
Other   |            | 3.834e-06  |            |       |100.00

Nlocal:    500 ave 500 max 500 min
Histogram: 8 0 0 0 0 0 0 0 0 0
Nghost:    13000 ave 13000 max 13000 min
Histogram: 8 0 0 0 0 0 0 0 0 0
Neighs:    50000 ave 50000 max 50000 min
Histogram: 8 0 0 0 0 0 0 0 0 0

Total # of neighbors = 400000
Ave neighs/atom = 100
Neighbor list builds = 0
Dangerous builds = 0
# expect 1 1 1 1 (one atom per cell each)
variable t5a equal abs(${d5a}-1)+abs(${d5b}-1)+abs(${d5c}-1)+abs(${d5d}-1)
variable t5a equal abs(1-1)+abs(${d5b}-1)+abs(${d5c}-1)+abs(${d5d}-1)
variable t5a equal abs(1-1)+abs(1-1)+abs(${d5c}-1)+abs(${d5d}-1)
variable t5a equal abs(1-1)+abs(1-1)+abs(1-1)+abs(${d5d}-1)
variable t5a equal abs(1-1)+abs(1-1)+abs(1-1)+abs(1-1)

# move atom i1 next to atom i2
variable oxd equal x[${i1}]
variable oxd equal x[13]
variable oyd equal y[${i1}]
variable oyd equal y[13]
variable ozd equal z[${i1}]
variable ozd equal z[13]
# we need to freeze this value
variable ox equal ${oxd}
variable ox equal 3.25
variable oy equal ${oyd}
variable oy equal 0.25
variable oz equal ${ozd}
variable oz equal 0.25
# these coords dont change so dynamic evaluation is ok
variable nx equal x[${i2}]
variable nx equal x[257]
variable ny equal y[${i2}]
variable ny equal y[257]
variable nz equal z[${i2}]
variable nz equal z[257]
set atom ${i1} x $(v_nx+0.2) y $(v_ny+0.2) z $(v_nz+0.2)
set atom 13 x $(v_nx+0.2) y $(v_ny+0.2) z $(v_nz+0.2)
set atom 13 x 4.4500000000000001776 y $(v_ny+0.2) z $(v_nz+0.2)
set atom 13 x 4.4500000000000001776 y 2.4500000000000001776 z $(v_nz+0.2)
set atom 13 x 4.4500000000000001776 y 2.4500000000000001776 z 2.4500000000000001776
  1 settings made for x
  1 settings made for y
  1 settings made for z

run 0
WARNING: No fixes defined, atoms won't move (../verlet.cpp:55)
Per MPI rank memory allocation (min/avg/max) = 4.515 | 4.515 | 4.515 Mbytes
Step c_r0 c_r1 v_d5a v_d5b v_d5c v_d5d 
       4         4000         4002            0            2            2            2 
Loop time of 4.437e-06 on 8 procs for 0 steps with 4000 atoms

135.2% CPU use with 8 MPI tasks x no OpenMP threads

MPI task timing breakdown:
Section |  min time  |  avg time  |  max time  |%varavg| %total
---------------------------------------------------------------
Pair    | 0          | 0          | 0          |   0.0 |  0.00
Neigh   | 0          | 0          | 0          |   0.0 |  0.00
Comm    | 0          | 0          | 0          |   0.0 |  0.00
Output  | 0          | 0          | 0          |   0.0 |  0.00
Modify  | 0          | 0          | 0          |   0.0 |  0.00
Other   |            | 4.437e-06  |            |       |100.00

Nlocal:    500 ave 500 max 500 min
Histogram: 8 0 0 0 0 0 0 0 0 0
Nghost:    13000 ave 13000 max 13000 min
Histogram: 8 0 0 0 0 0 0 0 0 0
Neighs:    49999.8 ave 50103 max 49953 min
Histogram: 1 2 0 4 0 0 0 0 0 1

Total # of neighbors = 399998
Ave neighs/atom = 99.9995
Neighbor list builds = 0
Dangerous builds = 0
# expect 0 2 2 2 (vacancy at the original i1 site, interstitial at i2 and both atoms are now sharing a site)
variable t5b equal abs(${d5a}-0)+abs(${d5b}-2)+abs(${d5c}-2)+abs(${d5d}-2)
variable t5b equal abs(0-0)+abs(${d5b}-2)+abs(${d5c}-2)+abs(${d5d}-2)
variable t5b equal abs(0-0)+abs(2-2)+abs(${d5c}-2)+abs(${d5d}-2)
variable t5b equal abs(0-0)+abs(2-2)+abs(2-2)+abs(${d5d}-2)
variable t5b equal abs(0-0)+abs(2-2)+abs(2-2)+abs(2-2)

# move atom back
set atom ${i1} x ${ox} y ${oy} z ${oz}
set atom 13 x ${ox} y ${oy} z ${oz}
set atom 13 x 3.25 y ${oy} z ${oz}
set atom 13 x 3.25 y 0.25 z ${oz}
set atom 13 x 3.25 y 0.25 z 0.25
  1 settings made for x
  1 settings made for y
  1 settings made for z

run 0
WARNING: No fixes defined, atoms won't move (../verlet.cpp:55)
Per MPI rank memory allocation (min/avg/max) = 4.515 | 4.515 | 4.515 Mbytes
Step c_r0 c_r1 v_d5a v_d5b v_d5c v_d5d 
       4         4000         4000            1            1            1            1 
Loop time of 3.94312e-06 on 8 procs for 0 steps with 4000 atoms

133.1% CPU use with 8 MPI tasks x no OpenMP threads

MPI task timing breakdown:
Section |  min time  |  avg time  |  max time  |%varavg| %total
---------------------------------------------------------------
Pair    | 0          | 0          | 0          |   0.0 |  0.00
Neigh   | 0          | 0          | 0          |   0.0 |  0.00
Comm    | 0          | 0          | 0          |   0.0 |  0.00
Output  | 0          | 0          | 0          |   0.0 |  0.00
Modify  | 0          | 0          | 0          |   0.0 |  0.00
Other   |            | 3.943e-06  |            |       |100.00

Nlocal:    500 ave 500 max 500 min
Histogram: 8 0 0 0 0 0 0 0 0 0
Nghost:    13000 ave 13000 max 13000 min
Histogram: 8 0 0 0 0 0 0 0 0 0
Neighs:    50000 ave 50000 max 50000 min
Histogram: 8 0 0 0 0 0 0 0 0 0

Total # of neighbors = 400000
Ave neighs/atom = 100
Neighbor list builds = 0
Dangerous builds = 0
# expect 1 1 1 1 (restored to the initial state)
variable t5c equal abs(${d5a}-1)+abs(${d5b}-1)+abs(${d5c}-1)+abs(${d5d}-1)
variable t5c equal abs(1-1)+abs(${d5b}-1)+abs(${d5c}-1)+abs(${d5d}-1)
variable t5c equal abs(1-1)+abs(1-1)+abs(${d5c}-1)+abs(${d5d}-1)
variable t5c equal abs(1-1)+abs(1-1)+abs(1-1)+abs(${d5d}-1)
variable t5c equal abs(1-1)+abs(1-1)+abs(1-1)+abs(1-1)

print "TEST_5  $((v_t5a+v_t5b+v_t5c)*100)% Error.  Detection of vacancies and interstitials using the {occupation} keyword."
TEST_5  0% Error.  Detection of vacancies and interstitials using the {occupation} keyword.

uncompute v1
uncompute r0
uncompute r1

#
# TEST 6: Sum of all voronoi cells is the triclinic simulation cell volume
#

# switch to triclinic box
change_box all triclinic
  triclinic box = (0 0 0) to (10 10 10) with tilt (0 0 0)
change_box all xy final 5.0 remap units box
  triclinic box = (0 0 0) to (10 10 10) with tilt (5 0 0)

compute v1 all voronoi/atom
dump    d1 all custom 1 dump.voro id type x y z c_v1[1] c_v1[2]
compute r0 all   reduce sum c_v1[1]
thermo_style custom step c_r0
variable t6 equal c_r0
run  0
WARNING: No fixes defined, atoms won't move (../verlet.cpp:55)
Neighbor list info ...
  update every 1 steps, delay 10 steps, check yes
  max neighbors/atom: 2000, page size: 100000
  master list distance cutoff = 2.3
  ghost atom cutoff = 5
  binsize = 1.15, bins = 14 9 9
  1 neighbor lists, perpetual/occasional/extra = 1 0 0
  (1) pair lj/cut, perpetual
      attributes: half, newton on
      pair build: half/bin/newton/tri
      stencil: half/bin/3d/newton/tri
      bin: standard
Per MPI rank memory allocation (min/avg/max) = 5.811 | 5.811 | 5.812 Mbytes
Step c_r0 
       4         1000 
Loop time of 3.83503e-06 on 8 procs for 0 steps with 4000 atoms

136.9% CPU use with 8 MPI tasks x no OpenMP threads

MPI task timing breakdown:
Section |  min time  |  avg time  |  max time  |%varavg| %total
---------------------------------------------------------------
Pair    | 0          | 0          | 0          |   0.0 |  0.00
Neigh   | 0          | 0          | 0          |   0.0 |  0.00
Comm    | 0          | 0          | 0          |   0.0 |  0.00
Output  | 0          | 0          | 0          |   0.0 |  0.00
Modify  | 0          | 0          | 0          |   0.0 |  0.00
Other   |            | 3.835e-06  |            |       |100.00

Nlocal:    500 ave 500 max 500 min
Histogram: 8 0 0 0 0 0 0 0 0 0
Nghost:    13900 ave 13900 max 13900 min
Histogram: 8 0 0 0 0 0 0 0 0 0
Neighs:    54000 ave 54000 max 54000 min
Histogram: 8 0 0 0 0 0 0 0 0 0

Total # of neighbors = 432000
Ave neighs/atom = 108
Neighbor list builds = 0
Dangerous builds = 0
print "TEST_6  $(round((v_t6-1000)/10))% Error.  Sum of all voronoi cells is the triclinic simulation cell volume"
TEST_6  0% Error.  Sum of all voronoi cells is the triclinic simulation cell volume
uncompute v1
uncompute r0
undump    d1

# All tests done

print TEST_DONE
TEST_DONE
Total wall time: 0:00:04
