LAMMPS (2 Aug 2023 - Development - bc02a7cc6)
# REAX potential for AuO system
# .....

units		real

atom_style	charge
read_data	data.AuO
Reading data file ...
  orthogonal box = (0 0 0) to (26.15618 21.54252 24.00246)
  2 by 2 by 2 MPI processor grid
  reading atoms ...
  960 atoms
  read_data CPU = 0.009 seconds

pair_style	reax/c lmp_control
WARNING: Ignoring inactive control parameter: simulation_name (src/REAXFF/reaxff_control.cpp:98)
WARNING: Ignoring inactive control parameter: energy_update_freq (src/REAXFF/reaxff_control.cpp:98)
WARNING: Support for writing native trajectories has been removed after LAMMPS version 8 April 2021 (src/REAXFF/reaxff_control.cpp:114)
WARNING: Ignoring inactive control parameter: traj_title (src/REAXFF/reaxff_control.cpp:98)
WARNING: Ignoring inactive control parameter: atom_info (src/REAXFF/reaxff_control.cpp:98)
WARNING: Ignoring inactive control parameter: atom_forces (src/REAXFF/reaxff_control.cpp:98)
WARNING: Ignoring inactive control parameter: atom_velocities (src/REAXFF/reaxff_control.cpp:98)
WARNING: Ignoring inactive control parameter: bond_info (src/REAXFF/reaxff_control.cpp:98)
WARNING: Ignoring inactive control parameter: angle_info (src/REAXFF/reaxff_control.cpp:98)
pair_coeff	* * ffield.reax.AuO O Au
Reading potential file ffield.reax.AuO with DATE: 2011-02-18

neighbor	2 bin
neigh_modify	every 10 delay 0 check no

fix		1 all nve
fix             2 all qeq/reax 1 0.0 10.0 1e-6 param.qeq
fix             3 all temp/berendsen 500.0 500.0 100.0

timestep	0.25

#dump		1 all atom 30 dump.reax.auo

run		100

CITE-CITE-CITE-CITE-CITE-CITE-CITE-CITE-CITE-CITE-CITE-CITE-CITE

Your simulation uses code contributions which should be cited:

- pair reaxff command: doi:10.1016/j.parco.2011.08.005

@Article{Aktulga12,
 author = {H. M. Aktulga and J. C. Fogarty and S. A. Pandit and A. Y. Grama},
 title = {Parallel Reactive Molecular Dynamics: {N}umerical Methods and Algorithmic Techniques},
 journal = {Parallel Computing},
 year =    2012,
 volume =  38,
 number =  {4--5},
 pages =   {245--259}
}

- fix qeq/reaxff command: doi:10.1016/j.parco.2011.08.005

@Article{Aktulga12,
 author = {H. M. Aktulga and J. C. Fogarty and S. A. Pandit and A. Y. Grama},
 title = {Parallel Reactive Molecular Dynamics: {N}umerical Methods and Algorithmic Techniques},
 journal = {Parallel Computing},
 year =    2012,
 volume =  38,
 pages =   {245--259}
}

CITE-CITE-CITE-CITE-CITE-CITE-CITE-CITE-CITE-CITE-CITE-CITE-CITE

Neighbor list info ...
  update: every = 10 steps, delay = 0 steps, check = no
  max neighbors/atom: 2000, page size: 100000
  master list distance cutoff = 12
  ghost atom cutoff = 12
  binsize = 6, bins = 5 4 5
  2 neighbor lists, perpetual/occasional/extra = 2 0 0
  (1) pair reax/c, perpetual
      attributes: half, newton off, ghost
      pair build: half/bin/newtoff/ghost
      stencil: full/ghost/bin/3d
      bin: standard
  (2) fix qeq/reax, perpetual, copy from (1)
      attributes: half, newton off
      pair build: copy
      stencil: none
      bin: none
Per MPI rank memory allocation (min/avg/max) = 55.47 | 55.47 | 55.47 Mbytes
   Step          Temp          E_pair         E_mol          TotEng         Press     
         0   0             -72201.743      0             -72201.743     -166.19901    
       100   69.043335     -72076.309      0             -71878.942      22702.829    
Loop time of 4.957 on 8 procs for 100 steps with 960 atoms

Performance: 0.436 ns/day, 55.078 hours/ns, 20.173 timesteps/s, 19.367 katom-step/s
99.0% CPU use with 8 MPI tasks x no OpenMP threads

MPI task timing breakdown:
Section |  min time  |  avg time  |  max time  |%varavg| %total
---------------------------------------------------------------
Pair    | 3.4506     | 3.8743     | 4.063      |  12.5 | 78.16
Neigh   | 0.23293    | 0.27208    | 0.28671    |   4.3 |  5.49
Comm    | 0.076491   | 0.26533    | 0.68878    |  47.7 |  5.35
Output  | 0.00011471 | 0.00011983 | 0.00014707 |   0.0 |  0.00
Modify  | 0.52888    | 0.5434     | 0.58303    |   3.1 | 10.96
Other   |            | 0.001805   |            |       |  0.04

Nlocal:            120 ave         120 max         120 min
Histogram: 8 0 0 0 0 0 0 0 0 0
Nghost:           3111 ave        3111 max        3111 min
Histogram: 8 0 0 0 0 0 0 0 0 0
Neighs:          55874 ave       55874 max       55874 min
Histogram: 8 0 0 0 0 0 0 0 0 0

Total # of neighbors = 446992
Ave neighs/atom = 465.61667
Neighbor list builds = 10
Dangerous builds not checked
Total wall time: 0:00:05
