LAMMPS (29 Aug 2024 - Development - f820c928a)
# REAX potential for AuO system
# .....

units		real

atom_style	charge
read_data	data.AuO
Reading data file ...
  orthogonal box = (0 0 0) to (26.15618 21.54252 24.00246)
  2 by 2 by 2 MPI processor grid
  reading atoms ...
  960 atoms
  read_data CPU = 0.007 seconds

pair_style	reaxff lmp_control
WARNING: Ignoring inactive control parameter: simulation_name (src/REAXFF/reaxff_control.cpp:98)
WARNING: Ignoring inactive control parameter: energy_update_freq (src/REAXFF/reaxff_control.cpp:98)
WARNING: Support for writing native trajectories has been removed after LAMMPS version 8 April 2021 (src/REAXFF/reaxff_control.cpp:114)
WARNING: Ignoring inactive control parameter: traj_title (src/REAXFF/reaxff_control.cpp:98)
WARNING: Ignoring inactive control parameter: atom_info (src/REAXFF/reaxff_control.cpp:98)
WARNING: Ignoring inactive control parameter: atom_forces (src/REAXFF/reaxff_control.cpp:98)
WARNING: Ignoring inactive control parameter: atom_velocities (src/REAXFF/reaxff_control.cpp:98)
WARNING: Ignoring inactive control parameter: bond_info (src/REAXFF/reaxff_control.cpp:98)
WARNING: Ignoring inactive control parameter: angle_info (src/REAXFF/reaxff_control.cpp:98)
pair_coeff	* * ffield.reax.AuO O Au
Reading potential file ffield.reax.AuO with DATE: 2011-02-18

neighbor	2 bin
neigh_modify	every 10 delay 0 check no

fix		1 all nve
fix             2 all qeq/reax 1 0.0 10.0 1e-6 param.qeq
fix             3 all temp/berendsen 500.0 500.0 100.0

timestep	0.25

#dump		1 all atom 30 dump.reax.auo

run		100

CITE-CITE-CITE-CITE-CITE-CITE-CITE-CITE-CITE-CITE-CITE-CITE-CITE

Your simulation uses code contributions which should be cited:

- Type Label Framework: https://doi.org/10.1021/acs.jpcb.3c08419

@Article{Gissinger24,
 author = {Jacob R. Gissinger, Ilia Nikiforov, Yaser Afshar, Brendon Waters, Moon-ki Choi, Daniel S. Karls, Alexander Stukowski, Wonpil Im, Hendrik Heinz, Axel Kohlmeyer, and Ellad B. Tadmor},
 title = {Type Label Framework for Bonded Force Fields in LAMMPS},
 journal = {J. Phys. Chem. B},
 year =    2024,
 volume =  128,
 number =  13,
 pages =   {3282--3297}
}

- pair reaxff command: doi:10.1016/j.parco.2011.08.005

@Article{Aktulga12,
 author = {H. M. Aktulga and J. C. Fogarty and S. A. Pandit and A. Y. Grama},
 title = {Parallel Reactive Molecular Dynamics: {N}umerical Methods and Algorithmic Techniques},
 journal = {Parallel Computing},
 year =    2012,
 volume =  38,
 number =  {4--5},
 pages =   {245--259}
}

- fix qeq/reaxff command: doi:10.1016/j.parco.2011.08.005

@Article{Aktulga12,
 author = {H. M. Aktulga and J. C. Fogarty and S. A. Pandit and A. Y. Grama},
 title = {Parallel Reactive Molecular Dynamics: {N}umerical Methods and Algorithmic Techniques},
 journal = {Parallel Computing},
 year =    2012,
 volume =  38,
 pages =   {245--259}
}

CITE-CITE-CITE-CITE-CITE-CITE-CITE-CITE-CITE-CITE-CITE-CITE-CITE

Neighbor list info ...
  update: every = 10 steps, delay = 0 steps, check = no
  max neighbors/atom: 2000, page size: 100000
  master list distance cutoff = 12
  ghost atom cutoff = 12
  binsize = 6, bins = 5 4 5
  2 neighbor lists, perpetual/occasional/extra = 2 0 0
  (1) pair reaxff, perpetual
      attributes: half, newton off, ghost
      pair build: half/bin/ghost/newtoff
      stencil: full/ghost/bin/3d
      bin: standard
  (2) fix qeq/reax, perpetual, copy from (1)
      attributes: half, newton off
      pair build: copy
      stencil: none
      bin: none
Per MPI rank memory allocation (min/avg/max) = 55.47 | 55.47 | 55.47 Mbytes
   Step          Temp          E_pair         E_mol          TotEng         Press     
         0   0             -72201.743      0             -72201.743     -166.19901    
       100   69.043332     -72076.309      0             -71878.942      22703.228    
Loop time of 4.09177 on 8 procs for 100 steps with 960 atoms

Performance: 0.528 ns/day, 45.464 hours/ns, 24.439 timesteps/s, 23.462 katom-step/s
95.4% CPU use with 8 MPI tasks x no OpenMP threads

MPI task timing breakdown:
Section |  min time  |  avg time  |  max time  |%varavg| %total
---------------------------------------------------------------
Pair    | 2.6171     | 2.7597     | 2.9132     |   6.9 | 67.44
Neigh   | 0.21878    | 0.23567    | 0.25959    |   3.2 |  5.76
Comm    | 0.39144    | 0.52709    | 0.65303    |  13.4 | 12.88
Output  | 9.9919e-05 | 0.00010421 | 0.00012523 |   0.0 |  0.00
Modify  | 0.52592    | 0.56771    | 0.60811    |   4.5 | 13.87
Other   |            | 0.001515   |            |       |  0.04

Nlocal:            120 ave         120 max         120 min
Histogram: 8 0 0 0 0 0 0 0 0 0
Nghost:           3111 ave        3111 max        3111 min
Histogram: 8 0 0 0 0 0 0 0 0 0
Neighs:          55874 ave       55874 max       55874 min
Histogram: 8 0 0 0 0 0 0 0 0 0

Total # of neighbors = 446992
Ave neighs/atom = 465.61667
Neighbor list builds = 10
Dangerous builds not checked
Total wall time: 0:00:04
