LAMMPS (4 Jan 2019)
# sample LAMMPS input script for thermal conductivity of liquid LJ
# use fix heat to add/subtract energy from 2 regions

# settings

variable	x equal 10
variable	y equal 10
variable	z equal 20

variable	rho equal 0.6
variable        t equal 1.35
variable	rc equal 2.5

#variable	rho equal 0.85
#variable        t equal 0.7
#variable	rc equal 3.0

# setup problem

units		lj
atom_style	atomic

lattice		fcc ${rho}
lattice		fcc 0.6
Lattice spacing in x,y,z = 1.88207 1.88207 1.88207
region		box block 0 $x 0 $y 0 $z
region		box block 0 10 0 $y 0 $z
region		box block 0 10 0 10 0 $z
region		box block 0 10 0 10 0 20
create_box	1 box
Created orthogonal box = (0 0 0) to (18.8207 18.8207 37.6414)
  2 by 1 by 4 MPI processor grid
create_atoms	1 box
Created 8000 atoms
  Time spent = 0.000845944 secs
mass		1 1.0

velocity	all create $t 87287
velocity	all create 1.35 87287

pair_style	lj/cut ${rc}
pair_style	lj/cut 2.5
pair_coeff	1 1 1.0 1.0

neighbor	0.3 bin
neigh_modify	delay 0 every 1

# heat layers

region          hot block INF INF INF INF 0 1
region          cold block  INF INF INF INF 10 11
compute         Thot all temp/region hot
compute         Tcold all temp/region cold

# 1st equilibration run

fix             1 all nvt temp $t $t 0.5
fix             1 all nvt temp 1.35 $t 0.5
fix             1 all nvt temp 1.35 1.35 0.5
thermo	        100
run             1000
Neighbor list info ...
  update every 1 steps, delay 0 steps, check yes
  max neighbors/atom: 2000, page size: 100000
  master list distance cutoff = 2.8
  ghost atom cutoff = 2.8
  binsize = 1.4, bins = 14 14 27
  1 neighbor lists, perpetual/occasional/extra = 1 0 0
  (1) pair lj/cut, perpetual
      attributes: half, newton on
      pair build: half/bin/atomonly/newton
      stencil: half/bin/3d/newton
      bin: standard
Per MPI rank memory allocation (min/avg/max) = 3.151 | 3.151 | 3.151 Mbytes
Step Temp E_pair E_mol TotEng Press 
       0         1.35   -4.1241917            0   -2.0994448   -3.1961612 
     100    1.1819832   -3.7640881            0    -1.991335   0.53985757 
     200    1.2578365   -3.7395333            0   -1.8530144   0.69591862 
     300    1.3282971   -3.7215427            0   -1.7293461   0.79036065 
     400    1.3714367   -3.7043826            0   -1.6474847   0.85873226 
     500    1.3590952   -3.6707735            0   -1.6323855   0.99602024 
     600    1.3575117   -3.7118244            0   -1.6758114   0.81454305 
     700    1.3284444   -3.7075488            0   -1.7151313   0.81136596 
     800    1.3419995   -3.7155648            0   -1.7028172   0.82925676 
     900    1.3562214   -3.6965609            0   -1.6624831   0.88908117 
    1000    1.3732017   -3.7100044            0   -1.6504594   0.83982701 
Loop time of 0.967783 on 8 procs for 1000 steps with 8000 atoms

Performance: 446381.071 tau/day, 1033.290 timesteps/s
99.0% CPU use with 8 MPI tasks x no OpenMP threads

MPI task timing breakdown:
Section |  min time  |  avg time  |  max time  |%varavg| %total
---------------------------------------------------------------
Pair    | 0.48693    | 0.50779    | 0.52502    |   1.9 | 52.47
Neigh   | 0.24817    | 0.25532    | 0.26378    |   1.1 | 26.38
Comm    | 0.13856    | 0.16412    | 0.19205    |   4.7 | 16.96
Output  | 0.00026072 | 0.00027042 | 0.00031366 |   0.0 |  0.03
Modify  | 0.03037    | 0.030656   | 0.030951   |   0.1 |  3.17
Other   |            | 0.009624   |            |       |  0.99

Nlocal:    1000 ave 1020 max 982 min
Histogram: 1 0 2 1 0 1 1 1 0 1
Nghost:    2299.5 ave 2331 max 2268 min
Histogram: 1 1 1 1 0 0 0 3 0 1
Neighs:    27122 ave 28382 max 26337 min
Histogram: 2 0 2 1 1 0 0 1 0 1

Total # of neighbors = 216976
Ave neighs/atom = 27.122
Neighbor list builds = 162
Dangerous builds = 0

velocity	all scale $t
velocity	all scale 1.35

unfix		1

# 2nd equilibration run

fix		1 all nve
fix             hot all heat 1 100.0 region hot
fix             cold all heat 1 -100.0 region cold

thermo_style    custom step temp c_Thot c_Tcold
thermo	        1000
run             1000
Per MPI rank memory allocation (min/avg/max) = 3.155 | 3.155 | 3.155 Mbytes
Step Temp c_Thot c_Tcold 
    1000         1.35     1.431295    1.2955644 
    2000    1.3518468    1.5562602     1.154905 
Loop time of 1.05478 on 8 procs for 1000 steps with 8000 atoms

Performance: 409562.531 tau/day, 948.061 timesteps/s
98.7% CPU use with 8 MPI tasks x no OpenMP threads

MPI task timing breakdown:
Section |  min time  |  avg time  |  max time  |%varavg| %total
---------------------------------------------------------------
Pair    | 0.49547    | 0.5077     | 0.52545    |   1.6 | 48.13
Neigh   | 0.25478    | 0.26041    | 0.26815    |   1.0 | 24.69
Comm    | 0.14159    | 0.16693    | 0.1837     |   3.9 | 15.83
Output  | 3.4983e-05 | 3.6656e-05 | 4.0842e-05 |   0.0 |  0.00
Modify  | 0.10708    | 0.10826    | 0.11104    |   0.5 | 10.26
Other   |            | 0.01145    |            |       |  1.09

Nlocal:    1000 ave 1039 max 977 min
Histogram: 2 1 1 0 1 2 0 0 0 1
Nghost:    2287.25 ave 2345 max 2232 min
Histogram: 2 0 1 1 0 0 0 2 1 1
Neighs:    27122.8 ave 28436 max 25874 min
Histogram: 2 1 0 1 0 1 0 0 1 2

Total # of neighbors = 216982
Ave neighs/atom = 27.1227
Neighbor list builds = 166
Dangerous builds = 0

# thermal conductivity calculation

compute		ke all ke/atom
variable	temp atom c_ke/1.5

compute         layers all chunk/atom bin/1d z lower 0.05 units reduced
fix		2 all ave/chunk 10 100 1000 layers v_temp file profile.heat

variable        tdiff equal f_2[11][3]-f_2[1][3]
fix             ave all ave/time 1 1 1000 v_tdiff ave running start 13000
thermo_style    custom step temp c_Thot c_Tcold v_tdiff f_ave

run             2000
Per MPI rank memory allocation (min/avg/max) = 3.405 | 3.405 | 3.405 Mbytes
Step Temp c_Thot c_Tcold v_tdiff f_ave 
    2000    1.3518468    1.5562602     1.154905            0            0 
    3000    1.3477232    1.5890127    1.2395441  -0.27806491            0 
    4000    1.3625799    1.6166854     1.118017  -0.42451873            0 
Loop time of 2.1919 on 8 procs for 2000 steps with 8000 atoms

Performance: 394178.714 tau/day, 912.451 timesteps/s
99.4% CPU use with 8 MPI tasks x no OpenMP threads

MPI task timing breakdown:
Section |  min time  |  avg time  |  max time  |%varavg| %total
---------------------------------------------------------------
Pair    | 0.86686    | 0.99902    | 1.1131     |   8.0 | 45.58
Neigh   | 0.45874    | 0.5137     | 0.56467    |   4.9 | 23.44
Comm    | 0.27351    | 0.43708    | 0.62282    |  17.3 | 19.94
Output  | 0.000102   | 0.00016932 | 0.00018145 |   0.0 |  0.01
Modify  | 0.21545    | 0.2183     | 0.22376    |   0.7 |  9.96
Other   |            | 0.02362    |            |       |  1.08

Nlocal:    1000 ave 1059 max 946 min
Histogram: 1 2 1 0 0 0 1 0 2 1
Nghost:    2303.88 ave 2425 max 2193 min
Histogram: 3 1 0 0 0 0 0 0 2 2
Neighs:    27188.5 ave 30638 max 24266 min
Histogram: 1 2 1 0 0 0 0 3 0 1

Total # of neighbors = 217508
Ave neighs/atom = 27.1885
Neighbor list builds = 335
Dangerous builds = 0
Total wall time: 0:00:04
