LAMMPS (4 Jan 2019)
# sample LAMMPS input script for thermal conductivity of liquid LJ
# Green-Kubo method via compute heat/flux and fix ave/correlate

# settings

variable	x equal 10
variable	y equal 10
variable	z equal 10

variable	rho equal 0.6
variable        t equal 1.35
variable	rc equal 2.5

#variable	rho equal 0.85
#variable        t equal 0.7
#variable	rc equal 3.0

variable    p equal 200     # correlation length
variable    s equal 10      # sample interval
variable    d equal $p*$s   # dump interval
variable    d equal 200*$s   
variable    d equal 200*10   

# setup problem

units		lj
atom_style	atomic

lattice		fcc ${rho}
lattice		fcc 0.6
Lattice spacing in x,y,z = 1.88207 1.88207 1.88207
region		box block 0 $x 0 $y 0 $z
region		box block 0 10 0 $y 0 $z
region		box block 0 10 0 10 0 $z
region		box block 0 10 0 10 0 10
create_box	1 box
Created orthogonal box = (0 0 0) to (18.8207 18.8207 18.8207)
  2 by 2 by 2 MPI processor grid
create_atoms	1 box
Created 4000 atoms
  Time spent = 0.00102567 secs
mass		1 1.0

velocity	all create $t 87287
velocity	all create 1.35 87287

pair_style	lj/cut ${rc}
pair_style	lj/cut 2.5
pair_coeff	1 1 1.0 1.0

neighbor	0.3 bin
neigh_modify	delay 0 every 1

# 1st equilibration run

fix		1 all nvt temp $t $t 0.5
fix		1 all nvt temp 1.35 $t 0.5
fix		1 all nvt temp 1.35 1.35 0.5
thermo		100
run		1000
Neighbor list info ...
  update every 1 steps, delay 0 steps, check yes
  max neighbors/atom: 2000, page size: 100000
  master list distance cutoff = 2.8
  ghost atom cutoff = 2.8
  binsize = 1.4, bins = 14 14 14
  1 neighbor lists, perpetual/occasional/extra = 1 0 0
  (1) pair lj/cut, perpetual
      attributes: half, newton on
      pair build: half/bin/atomonly/newton
      stencil: half/bin/3d/newton
      bin: standard
Per MPI rank memory allocation (min/avg/max) = 3.108 | 3.108 | 3.108 Mbytes
Step Temp E_pair E_mol TotEng Press 
       0         1.35   -4.1241917            0   -2.0996979   -3.1962625 
     100    1.1997886   -3.7796264            0   -1.9803934    0.4889458 
     200     1.271238   -3.7354981            0   -1.8291178    0.6873844 
     300    1.3346808   -3.6942841            0   -1.6927634   0.84332881 
     400    1.4020848   -3.7118654            0   -1.6092641   0.87670585 
     500    1.3723622   -3.6917931            0   -1.6337644   0.92172921 
     600    1.3451676   -3.7281573            0   -1.7109103   0.76029091 
     700    1.3021567   -3.6876155            0   -1.7348687   0.82721085 
     800    1.3489121   -3.7082852            0   -1.6854229   0.86438061 
     900    1.3708803   -3.6966168            0   -1.6408103     0.921415 
    1000    1.3640742   -3.7075319            0   -1.6619322   0.86651332 
Loop time of 0.546519 on 8 procs for 1000 steps with 4000 atoms

Performance: 790457.998 tau/day, 1829.764 timesteps/s
97.4% CPU use with 8 MPI tasks x no OpenMP threads

MPI task timing breakdown:
Section |  min time  |  avg time  |  max time  |%varavg| %total
---------------------------------------------------------------
Pair    | 0.24854    | 0.25305    | 0.25927    |   0.6 | 46.30
Neigh   | 0.12232    | 0.12374    | 0.12671    |   0.4 | 22.64
Comm    | 0.13558    | 0.1446     | 0.14968    |   1.1 | 26.46
Output  | 0.00023193 | 0.00023834 | 0.00027601 |   0.0 |  0.04
Modify  | 0.01759    | 0.017846   | 0.018002   |   0.1 |  3.27
Other   |            | 0.007048   |            |       |  1.29

Nlocal:    500 ave 510 max 479 min
Histogram: 1 0 0 0 0 2 1 1 0 3
Nghost:    1519 ave 1539 max 1509 min
Histogram: 2 0 4 0 0 0 0 1 0 1
Neighs:    13553.8 ave 14051 max 12567 min
Histogram: 1 0 0 0 1 0 2 1 1 2

Total # of neighbors = 108430
Ave neighs/atom = 27.1075
Neighbor list builds = 155
Dangerous builds = 0

velocity	all scale $t
velocity	all scale 1.35

unfix		1

# thermal conductivity calculation

reset_timestep  0

compute         myKE all ke/atom
compute         myPE all pe/atom
compute         myStress all stress/atom NULL virial
compute         flux all heat/flux myKE myPE myStress
variable        Jx equal c_flux[1]/vol
variable        Jy equal c_flux[2]/vol
variable        Jz equal c_flux[3]/vol

fix	        1 all nve
fix             JJ all ave/correlate $s $p $d                 c_flux[1] c_flux[2] c_flux[3] type auto 	        file profile.heatflux ave running
fix             JJ all ave/correlate 10 $p $d                 c_flux[1] c_flux[2] c_flux[3] type auto 	        file profile.heatflux ave running
fix             JJ all ave/correlate 10 200 $d                 c_flux[1] c_flux[2] c_flux[3] type auto 	        file profile.heatflux ave running
fix             JJ all ave/correlate 10 200 2000                 c_flux[1] c_flux[2] c_flux[3] type auto 	        file profile.heatflux ave running

variable        scale equal $s*dt/$t/$t/vol
variable        scale equal 10*dt/$t/$t/vol
variable        scale equal 10*dt/1.35/$t/vol
variable        scale equal 10*dt/1.35/1.35/vol
variable        k11 equal trap(f_JJ[3])*${scale}
variable        k11 equal trap(f_JJ[3])*4.11522633744856e-06
variable        k22 equal trap(f_JJ[4])*${scale}
variable        k22 equal trap(f_JJ[4])*4.11522633744856e-06
variable        k33 equal trap(f_JJ[5])*${scale}
variable        k33 equal trap(f_JJ[5])*4.11522633744856e-06

thermo	        $d
thermo	        2000
thermo_style    custom step temp v_Jx v_Jy v_Jz v_k11 v_k22 v_k33

run             10000
Per MPI rank memory allocation (min/avg/max) = 4.985 | 4.985 | 4.985 Mbytes
Step Temp v_Jx v_Jy v_Jz v_k11 v_k22 v_k33 
       0         1.35  0.012561273 -0.087295611 -0.037041124  0.014429409   0.69689289   0.12547278 
    2000    1.3455113 -0.034571206  -0.17570902 -0.057218308   -1.6110148    7.9287556    8.5035767 
    4000    1.3477761 -0.029528723  0.018790489  0.056107464     7.698411    1.9459053    9.9605272 
    6000    1.3411436  -0.20281149    0.2184806  0.036024028    4.6533075    1.6223216    3.7246529 
    8000    1.3561682   0.12038719  0.034930957   0.12173601    4.6450263    1.9032849    2.7566363 
   10000    1.3397694  -0.14241489  -0.10956496  0.053088086    6.4191535    3.1582257    2.2786677 
Loop time of 5.77749 on 8 procs for 10000 steps with 4000 atoms

Performance: 747730.146 tau/day, 1730.857 timesteps/s
97.8% CPU use with 8 MPI tasks x no OpenMP threads

MPI task timing breakdown:
Section |  min time  |  avg time  |  max time  |%varavg| %total
---------------------------------------------------------------
Pair    | 2.7333     | 2.7983     | 2.8843     |   2.6 | 48.43
Neigh   | 1.2486     | 1.2611     | 1.2791     |   0.9 | 21.83
Comm    | 1.319      | 1.4226     | 1.4974     |   4.4 | 24.62
Output  | 0.0010999  | 0.0033198  | 0.0036425  |   1.5 |  0.06
Modify  | 0.21768    | 0.21856    | 0.22023    |   0.2 |  3.78
Other   |            | 0.07362    |            |       |  1.27

Nlocal:    500 ave 515 max 481 min
Histogram: 1 0 1 2 0 1 0 0 0 3
Nghost:    1536.12 ave 1550 max 1516 min
Histogram: 2 0 0 0 0 1 0 2 1 2
Neighs:    13549.5 ave 14277 max 12280 min
Histogram: 1 0 0 0 1 2 0 1 1 2

Total # of neighbors = 108396
Ave neighs/atom = 27.099
Neighbor list builds = 1601
Dangerous builds = 0

variable        kappa equal (v_k11+v_k22+v_k33)/3.0
print           "running average conductivity: ${kappa}"
running average conductivity: 3.95201562954345
Total wall time: 0:00:06
