LAMMPS (4 Jan 2019)
# sample LAMMPS input script for thermal conductivity of liquid LJ
# thermostatting 2 regions via fix langevin

# settings

variable	x equal 10
variable	y equal 10
variable	z equal 20

variable	rho equal 0.6
variable        t equal 1.35
variable	rc equal 2.5
variable        tlo equal 1.0
variable        thi equal 1.70

#variable	rho equal 0.85
#variable        t equal 0.7
#variable	rc equal 3.0
#variable        tlo equal 0.3
#variable        thi equal 1.0

# setup problem

units		lj
atom_style	atomic

lattice		fcc ${rho}
lattice		fcc 0.6
Lattice spacing in x,y,z = 1.88207 1.88207 1.88207
region		box block 0 $x 0 $y 0 $z
region		box block 0 10 0 $y 0 $z
region		box block 0 10 0 10 0 $z
region		box block 0 10 0 10 0 20
create_box	1 box
Created orthogonal box = (0 0 0) to (18.8207 18.8207 37.6414)
  2 by 1 by 4 MPI processor grid
create_atoms	1 box
Created 8000 atoms
  Time spent = 0.00121313 secs
mass		1 1.0

velocity	all create $t 87287
velocity	all create 1.35 87287

pair_style	lj/cut ${rc}
pair_style	lj/cut 2.5
pair_coeff	1 1 1.0 1.0

neighbor	0.3 bin
neigh_modify	delay 0 every 1

# heat layers

region          hot block INF INF INF INF 0 1
region          cold block  INF INF INF INF 10 11
compute         Thot all temp/region hot
compute         Tcold all temp/region cold

# 1st equilibration run

fix             1 all nvt temp $t $t 0.5
fix             1 all nvt temp 1.35 $t 0.5
fix             1 all nvt temp 1.35 1.35 0.5
thermo	        100
run             1000
Neighbor list info ...
  update every 1 steps, delay 0 steps, check yes
  max neighbors/atom: 2000, page size: 100000
  master list distance cutoff = 2.8
  ghost atom cutoff = 2.8
  binsize = 1.4, bins = 14 14 27
  1 neighbor lists, perpetual/occasional/extra = 1 0 0
  (1) pair lj/cut, perpetual
      attributes: half, newton on
      pair build: half/bin/atomonly/newton
      stencil: half/bin/3d/newton
      bin: standard
Per MPI rank memory allocation (min/avg/max) = 3.151 | 3.151 | 3.151 Mbytes
Step Temp E_pair E_mol TotEng Press 
       0         1.35   -4.1241917            0   -2.0994448   -3.1961612 
     100    1.1819832   -3.7640881            0    -1.991335   0.53985757 
     200    1.2578365   -3.7395333            0   -1.8530144   0.69591862 
     300    1.3282971   -3.7215427            0   -1.7293461   0.79036065 
     400    1.3714367   -3.7043826            0   -1.6474847   0.85873226 
     500    1.3590952   -3.6707735            0   -1.6323855   0.99602024 
     600    1.3575117   -3.7118244            0   -1.6758114   0.81454305 
     700    1.3284444   -3.7075488            0   -1.7151313   0.81136596 
     800    1.3419995   -3.7155648            0   -1.7028172   0.82925676 
     900    1.3562214   -3.6965609            0   -1.6624831   0.88908117 
    1000    1.3732017   -3.7100044            0   -1.6504594   0.83982701 
Loop time of 0.969568 on 8 procs for 1000 steps with 8000 atoms

Performance: 445559.457 tau/day, 1031.388 timesteps/s
98.8% CPU use with 8 MPI tasks x no OpenMP threads

MPI task timing breakdown:
Section |  min time  |  avg time  |  max time  |%varavg| %total
---------------------------------------------------------------
Pair    | 0.49447    | 0.51168    | 0.52761    |   1.5 | 52.77
Neigh   | 0.25153    | 0.25791    | 0.26358    |   0.8 | 26.60
Comm    | 0.13809    | 0.15958    | 0.18313    |   3.8 | 16.46
Output  | 0.000261   | 0.00026946 | 0.0003166  |   0.0 |  0.03
Modify  | 0.030319   | 0.030518   | 0.03066    |   0.1 |  3.15
Other   |            | 0.009615   |            |       |  0.99

Nlocal:    1000 ave 1020 max 982 min
Histogram: 1 0 2 1 0 1 1 1 0 1
Nghost:    2299.5 ave 2331 max 2268 min
Histogram: 1 1 1 1 0 0 0 3 0 1
Neighs:    27122 ave 28382 max 26337 min
Histogram: 2 0 2 1 1 0 0 1 0 1

Total # of neighbors = 216976
Ave neighs/atom = 27.122
Neighbor list builds = 162
Dangerous builds = 0

velocity	all scale $t
velocity	all scale 1.35

unfix		1

# 2nd equilibration run

fix		1 all nve
fix             hot all langevin ${thi} ${thi} 1.0 59804 tally yes
fix             hot all langevin 1.7 ${thi} 1.0 59804 tally yes
fix             hot all langevin 1.7 1.7 1.0 59804 tally yes
fix             cold all langevin ${tlo} ${tlo} 1.0 287859 tally yes
fix             cold all langevin 1 ${tlo} 1.0 287859 tally yes
fix             cold all langevin 1 1 1.0 287859 tally yes
fix_modify      hot temp Thot
fix_modify      cold temp Tcold

variable        tdiff equal c_Thot-c_Tcold
thermo_style    custom step temp c_Thot c_Tcold f_hot f_cold v_tdiff
thermo	        1000
run             1000
Per MPI rank memory allocation (min/avg/max) = 3.905 | 3.905 | 3.905 Mbytes
Step Temp c_Thot c_Tcold f_hot f_cold v_tdiff 
    1000         1.35     1.431295    1.2955644           -0           -0   0.13573065 
    2000    1.3593243    1.6602094    1.0898701  -0.13903162   0.14234352   0.57033928 
Loop time of 1.21029 on 8 procs for 1000 steps with 8000 atoms

Performance: 356938.096 tau/day, 826.246 timesteps/s
98.3% CPU use with 8 MPI tasks x no OpenMP threads

MPI task timing breakdown:
Section |  min time  |  avg time  |  max time  |%varavg| %total
---------------------------------------------------------------
Pair    | 0.4773     | 0.50259    | 0.53646    |   2.4 | 41.53
Neigh   | 0.24741    | 0.25868    | 0.26993    |   1.4 | 21.37
Comm    | 0.15278    | 0.1978     | 0.23407    |   5.4 | 16.34
Output  | 5.0731e-05 | 6.2335e-05 | 7.8286e-05 |   0.0 |  0.01
Modify  | 0.23276    | 0.23547    | 0.24114    |   0.5 | 19.46
Other   |            | 0.01568    |            |       |  1.30

Nlocal:    1000 ave 1054 max 949 min
Histogram: 2 0 1 0 1 1 1 0 1 1
Nghost:    2310 ave 2449 max 2185 min
Histogram: 2 2 0 0 0 0 0 2 1 1
Neighs:    27178 ave 30277 max 24632 min
Histogram: 2 1 0 1 0 1 1 0 1 1

Total # of neighbors = 217424
Ave neighs/atom = 27.178
Neighbor list builds = 168
Dangerous builds = 0

# thermal conductivity calculation
# reset langevin thermostats to zero energy accumulation

compute		ke all ke/atom
variable	temp atom c_ke/1.5

fix             hot all langevin ${thi} ${thi} 1.0 59804 tally yes
fix             hot all langevin 1.7 ${thi} 1.0 59804 tally yes
fix             hot all langevin 1.7 1.7 1.0 59804 tally yes
fix             cold all langevin ${tlo} ${tlo} 1.0 287859 tally yes
fix             cold all langevin 1 ${tlo} 1.0 287859 tally yes
fix             cold all langevin 1 1 1.0 287859 tally yes
fix_modify      hot temp Thot
fix_modify      cold temp Tcold

fix             ave all ave/time 10 100 1000 v_tdiff ave running
thermo_style    custom step temp c_Thot c_Tcold f_hot f_cold v_tdiff f_ave

compute         layers all chunk/atom bin/1d z lower 0.05 units reduced
fix		2 all ave/chunk 10 100 1000 layers v_temp file profile.langevin


run             2000
Per MPI rank memory allocation (min/avg/max) = 4.155 | 4.156 | 4.156 Mbytes
Step Temp c_Thot c_Tcold f_hot f_cold v_tdiff f_ave 
    2000    1.3593243    1.6592851    1.0898701           -0           -0     0.569415            0 
    3000    1.3362126    1.6270673    1.1150183 -0.064842825      0.10469   0.51204899   0.42028629 
    4000    1.3371149     1.547572    1.1007566  -0.12489899   0.17633464   0.44681543   0.46375515 
Loop time of 2.60444 on 8 procs for 2000 steps with 8000 atoms

Performance: 331741.274 tau/day, 767.920 timesteps/s
99.2% CPU use with 8 MPI tasks x no OpenMP threads

MPI task timing breakdown:
Section |  min time  |  avg time  |  max time  |%varavg| %total
---------------------------------------------------------------
Pair    | 0.89864    | 1.0256     | 1.1642     |  12.0 | 39.38
Neigh   | 0.47901    | 0.52868    | 0.58952    |   6.0 | 20.30
Comm    | 0.31519    | 0.50967    | 0.68519    |  22.7 | 19.57
Output  | 0.00012779 | 0.00019932 | 0.00021061 |   0.0 |  0.01
Modify  | 0.48585    | 0.4999     | 0.51702    |   1.7 | 19.19
Other   |            | 0.0404     |            |       |  1.55

Nlocal:    1000 ave 1091 max 906 min
Histogram: 2 0 2 0 0 0 0 1 1 2
Nghost:    2307.88 ave 2459 max 2155 min
Histogram: 3 1 0 0 0 0 0 0 2 2
Neighs:    27286.5 ave 31200 max 22676 min
Histogram: 2 1 1 0 0 0 0 0 0 4

Total # of neighbors = 218292
Ave neighs/atom = 27.2865
Neighbor list builds = 334
Dangerous builds = 0
Total wall time: 0:00:04
