LAMMPS (4 Jan 2019)
units real
boundary p p p

atom_style full
bond_style harmonic
angle_style harmonic
dihedral_style opls
special_bonds lj/coul 0.0 0.0 0.5

pair_style hybrid/overlay lj/cut/coul/long 8.0 8.0 thole 2.600 8.0
kspace_style pppm 1.0e-4

comm_modify vel yes
read_data data.ethanol
  orthogonal box = (-14.0138 -14.0278 -14.0189) to (14.0169 14.0177 14.0857)
  2 by 2 by 2 MPI processor grid
  reading atoms ...
  3000 atoms
  scanning bonds ...
  5 = max bonds/atom
  scanning angles ...
  6 = max angles/atom
  scanning dihedrals ...
  9 = max dihedrals/atom
  reading bonds ...
  2750 bonds
  reading angles ...
  3250 angles
  reading dihedrals ...
  3000 dihedrals
  5 = max # of 1-2 neighbors
  6 = max # of 1-3 neighbors
  10 = max # of 1-4 neighbors
  11 = max # of special neighbors

pair_coeff    1    1 lj/cut/coul/long 0.065997 3.500000 # C3H C3H
pair_coeff    1    2 lj/cut/coul/long 0.065997 3.500000 # C3H CTO
pair_coeff    1    3 lj/cut/coul/long 0.044496 2.958040 # C3H H
pair_coeff    1    4 lj/cut/coul/long 0.105921 3.304542 # C3H OH
pair_coeff    1    5 lj/cut/coul/long 0.000000 0.000000 # C3H HO
pair_coeff    2    2 lj/cut/coul/long 0.065997 3.500000 # CTO CTO
pair_coeff    2    3 lj/cut/coul/long 0.044496 2.958040 # CTO H
pair_coeff    2    4 lj/cut/coul/long 0.105921 3.304542 # CTO OH
pair_coeff    2    5 lj/cut/coul/long 0.000000 0.000000 # CTO HO
pair_coeff    3    3 lj/cut/coul/long 0.029999 2.500000 # H H
pair_coeff    3    4 lj/cut/coul/long 0.071413 2.792848 # H OH
pair_coeff    3    5 lj/cut/coul/long 0.000000 0.000000 # H HO
pair_coeff    4    4 lj/cut/coul/long 0.169996 3.120000 # OH OH
pair_coeff    4    5 lj/cut/coul/long 0.000000 0.000000 # OH HO
pair_coeff    5    5 lj/cut/coul/long 0.000000 0.000000 # HO HO
pair_coeff    *  6*8 lj/cut/coul/long 0.000000 0.000000 # No lj for drudes
pair_coeff    1    1 thole 2.051000
pair_coeff    1    2 thole 1.580265
pair_coeff    1    4 thole 1.416087
pair_coeff    1    6 thole 2.051000
pair_coeff    1    7 thole 1.580265
pair_coeff    1    8 thole 1.416087
pair_coeff    2    2 thole 1.217570
pair_coeff    2    4 thole 1.091074
pair_coeff    2    6 thole 1.580265
pair_coeff    2    7 thole 1.217570
pair_coeff    2    8 thole 1.091074
pair_coeff    4    4 thole 0.977720
pair_coeff    4    6 thole 1.416087
pair_coeff    4    7 thole 1.091074
pair_coeff    4    8 thole 0.977720
pair_coeff    6    6 thole 2.051000
pair_coeff    6    7 thole 1.580265
pair_coeff    6    8 thole 1.416087
pair_coeff    7    7 thole 1.217570
pair_coeff    7    8 thole 1.091074
pair_coeff    8    8 thole 0.977720

group gETHANOL molecule 1:250
3000 atoms in group gETHANOL
group gATOMS type 1 2 3 4 5
2250 atoms in group gATOMS
group gDRUDES type 6 7 8
750 atoms in group gDRUDES

neighbor 2.0 bin

variable vTEMP   equal 300.0
variable vTEMP_D equal 1.0
variable vPRESS  equal 1.0

velocity gATOMS  create ${vTEMP} 12345
velocity gATOMS  create 300 12345
velocity gDRUDES create ${vTEMP_D} 12345
velocity gDRUDES create 1 12345

fix fDRUDE all drude C C N C N D D D

fix fSHAKE gATOMS shake 0.0001 20 0 b 2 3 5
  250 = # of size 2 clusters
  250 = # of size 3 clusters
  250 = # of size 4 clusters
  0 = # of frozen angles

fix fLANG all langevin/drude ${vTEMP} 100.0 200611 ${vTEMP_D} 20.0 260514 zero yes
fix fLANG all langevin/drude 300 100.0 200611 ${vTEMP_D} 20.0 260514 zero yes
fix fLANG all langevin/drude 300 100.0 200611 1 20.0 260514 zero yes
fix fNPH all nph iso ${vPRESS} ${vPRESS} 500.0
fix fNPH all nph iso 1 ${vPRESS} 500.0
fix fNPH all nph iso 1 1 500.0

compute cTEMP all temp/drude

thermo_style custom step cpu etotal ke temp pe ebond eangle edihed eimp evdwl ecoul elong press vol c_cTEMP[1] c_cTEMP[2]
thermo 20

timestep 0.5
run 20
PPPM initialization ...
  using 12-bit tables for long-range coulomb (../kspace.cpp:321)
  G vector (1/distance) = 0.379738
  grid = 30 30 30
  stencil order = 5
  estimated absolute RMS force accuracy = 0.0289979
  estimated relative force accuracy = 8.73262e-05
  using double precision FFTs
  3d grid and FFT values/proc = 10648 3600
Rebuild special list taking Drude particles into account
Old max number of 1-2 to 1-4 neighbors: 11
New max number of 1-2 to 1-4 neighbors: 11 (+0)
Neighbor list info ...
  update every 1 steps, delay 10 steps, check yes
  max neighbors/atom: 2000, page size: 100000
  master list distance cutoff = 10
  ghost atom cutoff = 10
  binsize = 5, bins = 6 6 6
  2 neighbor lists, perpetual/occasional/extra = 2 0 0
  (1) pair lj/cut/coul/long, perpetual
      attributes: half, newton on
      pair build: half/bin/newton
      stencil: half/bin/3d/newton
      bin: standard
  (2) pair thole, perpetual, skip from (1)
      attributes: half, newton on
      pair build: skip
      stencil: none
      bin: none
Per MPI rank memory allocation (min/avg/max) = 14.5 | 14.52 | 14.52 Mbytes
Step CPU TotEng KinEng Temp PotEng E_bond E_angle E_dihed E_impro E_vdwl E_coul E_long Press Volume c_cTEMP[1] c_cTEMP[2] 
       0            0    13868.828    2013.3852    270.28772    11855.443     3145.896    51.880809 0.00019113234            0    8481.5109    514734.14   -514557.98    170210.19    22094.109    381.62759    10.134301 
      20   0.15338978     10991.38    5674.4292    761.76607    5316.9511    2049.6977     2225.916    126.82146            0     1718.905    514099.27   -514903.66    74648.908    22442.072    905.29092     426.0767 
Loop time of 0.153447 on 8 procs for 20 steps with 3000 atoms

Performance: 5.631 ns/day, 4.262 hours/ns, 130.338 timesteps/s
99.7% CPU use with 8 MPI tasks x no OpenMP threads

MPI task timing breakdown:
Section |  min time  |  avg time  |  max time  |%varavg| %total
---------------------------------------------------------------
Pair    | 0.06416    | 0.072005   | 0.081752   |   2.4 | 46.93
Bond    | 0.003198   | 0.0034874  | 0.0037537  |   0.3 |  2.27
Kspace  | 0.037152   | 0.047104   | 0.055146   |   2.9 | 30.70
Neigh   | 0          | 0          | 0          |   0.0 |  0.00
Comm    | 0.0066616  | 0.0074296  | 0.0089931  |   0.9 |  4.84
Output  | 6.4747e-05 | 6.6903e-05 | 7.8867e-05 |   0.0 |  0.04
Modify  | 0.019018   | 0.022522   | 0.023833   |   1.2 | 14.68
Other   |            | 0.0008321  |            |       |  0.54

Nlocal:    375 ave 387 max 358 min
Histogram: 1 0 0 3 0 0 0 1 1 2
Nghost:    5321.12 ave 5349 max 5301 min
Histogram: 3 1 0 0 0 1 1 0 1 1
Neighs:    114668 ave 128198 max 102419 min
Histogram: 1 1 0 1 2 1 0 0 0 2

Total # of neighbors = 917342
Ave neighs/atom = 305.781
Ave special neighs/atom = 10.5
Neighbor list builds = 0
Dangerous builds = 0
Total wall time: 0:00:00
