LAMMPS (28 Mar 2023 - Development)
# 3D copper block simulation
boundary     p p p
units        metal
atom_style   atomic

# geometry
read_data	 data.pos
Reading data file ...
  triclinic box = (0 0 -10) to (25.22 21.841161 10) with tilt (12.61 0 0)
WARNING: Triclinic box skew is large. LAMMPS will run inefficiently. (src/domain.cpp:220)
  2 by 2 by 2 MPI processor grid
  reading atoms ...
  200 atoms
  read_data CPU = 0.008 seconds

mass		*   12.0107

# EAM potential
pair_style   tersoff
pair_coeff   * * SiC.tersoff C
neighbor     2. nsq
neigh_modify every 1 delay 0 check yes

#Langevin random seed
variable     dt equal 2e-3
variable     r  equal 57085
variable     T  equal 300
variable     dT equal "v_dt * 100"

timestep ${dt}
timestep 0.002

# initialize
velocity     all create $T 28459 rot yes dist gaussian mom yes
velocity     all create 300 28459 rot yes dist gaussian mom yes
reset_timestep 0

# fixes
fix          1 all langevin $T $T ${dT} 73504 zero yes
fix          1 all langevin 300 $T ${dT} 73504 zero yes
fix          1 all langevin 300 300 ${dT} 73504 zero yes
fix          1 all langevin 300 300 0.2 73504 zero yes
fix          2 all nve
fix          3 all phonon 10 50000 1000000 map.in Graphene nasr 50

# output
#                    1    2    3  4  5     6   7
thermo_style custom step temp pe ke press pxx pyy
thermo       100

restart      1000000 restart.one restart.two

dump   1 all xyz 50000 dump.graphene.xyz

# execution
run 	 2000000

CITE-CITE-CITE-CITE-CITE-CITE-CITE-CITE-CITE-CITE-CITE-CITE-CITE

Your simulation uses code contributions which should be cited:

- fix phonon command: doi:10.1016/j.cpc.2011.04.019

@Article{Kong11,
 author = {L. T. Kong},
 title = {Phonon Dispersion Measured Directly from Molecular Dynamics Simulations},
 journal = {Comput.\ Phys.\ Commun.},
 year =    2011,
 volume =  182,
 pages =   {2201--2207}
}

CITE-CITE-CITE-CITE-CITE-CITE-CITE-CITE-CITE-CITE-CITE-CITE-CITE

Neighbor list info ...
  update: every = 1 steps, delay = 0 steps, check = yes
  max neighbors/atom: 2000, page size: 100000
  master list distance cutoff = 4.1
  ghost atom cutoff = 4.1
  1 neighbor lists, perpetual/occasional/extra = 1 0 0
  (1) pair tersoff, perpetual
      attributes: full, newton on
      pair build: full/nsq
      stencil: none
      bin: none
Per MPI rank memory allocation (min/avg/max) = 4.056 | 4.122 | 4.194 Mbytes
   Step          Temp          PotEng         KinEng         Press           Pxx            Pyy      
         0   300           -1478.5197      7.7168307      4437.9206      6311.3318      6292.9984    
       100   255.14684     -1471.5942      6.5630833      2902.2052      4647.1411      4242.786     
       200   274.54828     -1470.4168      7.0621419      2289.7754      2506.6368      4603.8868    
       300   274.03218     -1470.6461      7.0488665      2799.5505      5119.188       3327.1438    
       400   294.37668     -1470.8353      7.5721833      3104.8632      5621.5771      3627.548     
       500   307.85755     -1470.0582      7.9189486      2694.7072      5308.6441      2854.8402    
       600   329.55332     -1470.7632      8.4770238      3131.8658      5581.4854      3790.0298    
       700   295.05288     -1469.6629      7.5895769      2419.6787      4488.0704      2874.8067    
       800   303.0956      -1470.9175      7.796458       3701.5002      5345.7654      5734.2095    
       900   292.62535     -1469.8738      7.5271342      3341.765       4155.0021      5881.3717    
      1000   299.43087     -1469.9907      7.7021912      2731.3127      3532.8782      4722.288     
      1100   306.34781     -1469.5315      7.8801139      2961.6577      6045.7694      2982.6144    
      1200   301.33738     -1470.4512      7.7512317      3098.3123      3753.3803      5685.1478    
      1300   293.26282     -1469.8027      7.5435317      2896.0572      4017.526       4651.3387    
      1400   281.93514     -1470.0069      7.2521525      1751.4516      3739.6774      1571.0579    
      1500   282.73987     -1469.3264      7.2728523      3170.729       6798.164       2792.7038    
      1600   303.2312      -1470.5469      7.799946       3781.8108      6473.0851      4615.5827    
      1700   304.33055     -1470.6971      7.8282245      3237.0088      5166.5928      4549.6794    
      1800   339.73664     -1469.3441      8.7389669      2604.1117      4601.6885      3322.1619    
      1900   297.16941     -1468.9647      7.64402        2565.8107      4308.1602      3476.7106    
      2000   316.9069      -1469.1128      8.151723       2079.7265      1836.5889      4504.7429    
      2100   304.0623      -1468.871       7.8213242      2377.1753      2186.7868      5129.3355    
      2200   316.75049     -1470.2588      8.1476997      2811.8006      4914.3837      3381.1448    
      2300   296.23361     -1470.1149      7.6199488      2097.9413      2387.3446      3842.1357    
      2400   276.3833      -1470.1248      7.1093438      2492.9998      2517.291       5073.3508    
      2500   290.18763     -1470.5693      7.4644292      1721.2536      1352.2358      3950.3015    
      2600   302.27829     -1470.8227      7.7754346      3255.7723      4480.7021      5096.9108    
      2700   291.42865     -1470.3115      7.4963519      3025.6815      3375.136       5630.7566    
      2800   281.52937     -1469.7263      7.241715       3095.9798      4329.6423      4997.3065    
      2900   283.36439     -1469.8975      7.2889166      2908.3654      4455.5654      4244.1061    
      3000   294.65133     -1469.6101      7.579248       3087.2061      4209.9162      5094.4206    
      3100   320.81698     -1470.6443      8.2523009      2984.0449      3963.8216      4871.0872    
      3200   305.86433     -1470.0916      7.8676774      2508.6891      4592.27        3084.2543    
      3300   303.54174     -1470.3321      7.807934       2989.5761      5038.4949      4039.6989    
      3400   291.2529      -1470.1458      7.4918309      3024.8393      3764.4102      5471.5997    
      3500   289.68342     -1470.2111      7.4514596      3089.0086      4797.3003      4326.8825    
      3600   323.43591     -1470.0635      8.3196672      3319.5777      4764.3012      5230.8575    
      3700   333.1402      -1470.3852      8.5692884      2629.5643      1810.2238      5826.0309    
      3800   316.62074     -1470.5142      8.1443621      2082.4425      115.18562      5969.1099    
      3900   330.72059     -1470.8277      8.5070494      2375.0175      1974.806       4895.2334    
      4000   310.64986     -1470.4707      7.9907745      1942.2391      2749.1561      2870.8397    
      4100   304.55901     -1470.3991      7.834101       1325.6749      2381.6336      1772.3933    
      4200   251.33755     -1470.252       6.4650977      2566.4532      4740.7624      3024.4082    
      4300   295.55928     -1470.3238      7.602603       3920.3981      6388.8886      5273.2353    
      4400   297.94945     -1469.8472      7.6640849      3699.5684      6423.9439      4648.6502    
      4500   312.94032     -1469.5956      8.0496914      3646.9128      5675.6543      5290.3463    
      4600   279.79763     -1470.0371      7.1971698      2430.1911      4154.1861      3159.8648    
      4700   314.28602     -1470.3019      8.0843067      2352.1069      4005.4256      3011.512     
      4800   304.1653      -1469.0594      7.8239738      1878.7263      4028.1105      1653.4484    
      4900   290.61179     -1469.8051      7.47534        2430.8307      2656.4276      4727.3857    
      5000   307.57729     -1470.5359      7.9117396      3532.8993      4338.7631      6076.1234    
      5100   315.36097     -1469.9241      8.1119573      2259.1733      1632.7022      5086.5069    
      5200   290.12864     -1469.5183      7.462912       1277.9097      1267.4108      2754.1259    
      5300   316.03605     -1470.7277      8.1293222      2212.6472      2797.8532      3598.8314    
      5400   333.31808     -1469.5358      8.5738639      2251.3696      5465.9719      1288.9953    
      5500   300.26074     -1469.3102      7.7235377      2324.057       4291.6124      2818.126     
      5600   302.33341     -1470.6696      7.7768524      2387.7723      4798.5033      2264.0802    
      5700   310.0066      -1470.144       7.9742282      1947.1271      3206.1522      2673.9404    
      5800   311.36971     -1470.2265      8.009291       2494.9944      5263.4706      2207.8512    
      5900   277.41869     -1470.1883      7.1359768      2836.0635      4544.3971      4054.6752    
      6000   295.35017     -1470.3684      7.5972243      2930.0266      5425.3812      3472.1925    
      6100   290.30777     -1470.6667      7.4675196      2699.2195      5623.5647      2419.8258    
      6200   283.99596     -1470.7739      7.3051624      2808.8658      5026.5768      3251.3963    
      6300   310.42042     -1470.24        7.9848726      2817.1131      4148.6497      4307.0057    
      6400   304.94522     -1470.2184      7.8440354      2776.629       3445.3422      4951.4236    
      6500   306.25318     -1470.5966      7.8776796      2859.1658      3734.9649      4816.481     
      6600   319.81658     -1470.368       8.226568       2970.32        4203.2793      4671.3674    
      6700   329.27487     -1470.805       8.4698613      2454.4147      5702.0868      1619.6587    
      6800   299.61559     -1469.992       7.7069426      2400.6623      4617.0989      2588.6963    
      6900   308.11132     -1469.9006      7.9254763      2799.0832      4447.7478      3909.4749    
      7000   318.10327     -1470.1585      8.1824969      3079.5168      3198.3077      6029.5549    
      7100   292.45109     -1470.4987      7.5226517      3415.1776      4215.1486      5963.1736    
      7200   299.79693     -1470.6351      7.7116072      2983.2111      4570.7385      4355.7395    
      7300   280.48471     -1470.1541      7.2148435      2751.4935      4096.6814      4193.9395    
      7400   307.10445     -1470.5435      7.8995768      2772.6961      5077.4298      3337.0606    
      7500   324.6615      -1469.5332      8.3511926      2929.2021      4526.9841      4188.8932    
      7600   333.05251     -1469.8168      8.5670328      1971.3024      1576.3251      4282.2663    
      7700   311.55627     -1469.8703      8.0140898      1569.8732      3944.9524      837.76501    
      7800   335.44453     -1470.1494      8.6285622      1654.9271      1534.5632      3448.1382    
      7900   288.16747     -1470.0032      7.4124652      2263.0539      4769.6127      2089.3533    
      8000   290.35958     -1469.743       7.4688524      3085.1209      4682.2362      4485.6057    
      8100   283.28534     -1470.4349      7.2868833      1899.4574      2375.4278      3376.3011    
      8200   292.57482     -1470.5334      7.5258344      1881.7449      2174.3085      3473.3471    
      8300   314.02064     -1470.4871      8.0774804      3040.4387      3651.2195      5365.1709    
      8400   297.51426     -1469.7055      7.6528905      3451.3255      3842.0906      6549.5962    
      8500   307.19022     -1469.3523      7.9017831      3035.8688      4366.3183      4707.7782    
      8600   314.18439     -1470.436       8.0816925      3461.1323      4810.0623      5532.6298    
      8700   297.00606     -1469.6303      7.6398181      3072.5239      4078.3581      4980.9033    
      8800   287.66117     -1469.3374      7.3994418      1808.4902      1980.3818      3647.0751    
      8900   306.81353     -1469.8729      7.8920935      2614.2304      3765.8293      4114.0794    
      9000   304.82522     -1469.7366      7.8409488      2267.6572      4100.823       2902.8081    
      9100   299.46245     -1469.9615      7.7030033      3733.4917      4404.4241      6664.2748    
      9200   298.12502     -1469.613       7.6686011      2210.642       4620.1565      2087.6723    
      9300   289.68285     -1469.9071      7.4514451      2800.1675      5825.6318      2563.9971    
      9400   299.8143      -1469.7972      7.7120538      3105.9432      5434.1344      3899.7559    
      9500   292.29747     -1470.2599      7.5187004      3031.6322      4847.7336      4174.3931    
      9600   283.44982     -1469.9381      7.2911142      3442.6036      4592.3446      5791.2687    
      9700   306.07276     -1469.8125      7.8730388      3362.6843      4101.5481      6011.6555    
      9800   297.617       -1470.8287      7.6555333      2196.9587      4066.3879      2505.4382    
      9900   322.82376     -1470.688       8.303921       1910.2125      4631.4684      898.2465     
     10000   283.53924     -1469.8569      7.2934142      2621.7609      4944.003       3011.7762    
     10100   297.97904     -1470.8939      7.664846       2952.8018      3851.9857      4878.3537    
     10200   309.04906     -1470.2861      7.9495977      2778.4147      3735.1014      4528.0986    
     10300   316.54108     -1470.7209      8.142313       3392.9406      5031.2997      5011.651     
     10400   284.11022     -1470.0047      7.3081015      3274.3508      6065.7149      3911.0268    
     10500   292.50881     -1470.4146      7.5241364      2690.3819      4840.9028      3274.219     
     10600   304.53146     -1469.7383      7.8333924      2538.0625      1874.6962      5722.8172    
     10700   326.77902     -1470.1901      8.4056612      2572.9063      2446.539       5184.8918    
     10800   284.00879     -1469.9544      7.3054924      2138.0568      2158.1855      4305.5972    
     10900   285.88134     -1469.8057      7.3536596      2469.1663      4934.7437      2516.466     
     11000   295.73911     -1469.6653      7.6072287      2653.2752      2462.7265      5677.5858    
     11100   303.08202     -1470.5735      7.7961087      3437.1811      5107.719       5123.5286    
     11200   305.52597     -1470.2392      7.8589739      2212.5981      4134.3847      2624.0289    
     11300   310.58559     -1469.3819      7.9891214      1212.5893      2365.6093      1406.1914    
     11400   305.52656     -1470.5565      7.858989       1554.1064      4428.7931      267.80225    
     11500   302.39688     -1470.0717      7.778485       1756.4518      3033.8016      2337.8579    
     11600   287.16356     -1470.5194      7.3866418      2031.3237      2084.6737      4147.6499    
     11700   316.93706     -1470.0145      8.1524987      2231.7533      2558.7794      4200.4366    
     11800   292.92016     -1470.2921      7.5347175      2512.0055      2308.589       5100.921     
     11900   310.41172     -1470.1974      7.984649       2369.8734      3870.6222      3331.8929    
     12000   319.9279      -1469.6636      8.2294315      3192.653       5311.9677      4258.5484    
     12100   332.39977     -1469.5958      8.5502425      2592.1911      5051.8261      2769.6786    
     12200   289.03961     -1469.9011      7.434899       2944.3628      3683.9173      5195.9903    
     12300   294.7949      -1470.7501      7.582941       3191.37        5572.6215      3961.8877    
     12400   320.21625     -1470.3726      8.2368486      2728.9376      4167.2165      3862.6616    
     12500   298.31362     -1470.3002      7.6734522      3255.5518      6279.5791      3416.3507    
     12600   334.92749     -1470.2298      8.6152624      3102.5169      5671.6437      3540.6057    
     12700   339.18383     -1470.002       8.7247471      2156.9515      5293.4001      1023.3465    
     12800   284.94497     -1469.8611      7.3295735      2053.3135      2897.1443      3230.3813    
     12900   267.24511     -1470.1088      6.8742842      2012.9039      2860.8382      3358.6008    
     13000   319.77476     -1471.0739      8.2254923      2552.0298      4956.5734      2659.7238    
     13100   319.38217     -1470.4789      8.2153937      2607.2884      4531.4388      3175.9376    
     13200   296.49008     -1470.7291      7.6265457      2789.4387      3736.1159      4679.9539    
     13300   296.33792     -1471.0593      7.6226319      3905.1727      5600.6645      6042.3964    
     13400   293.69298     -1470.8808      7.5545966      3411.6088      4657.394       5496.3944    
     13500   297.42864     -1470.7635      7.6506881      2745.8237      3993.1991      4141.1341    
     13600   274.90454     -1469.9462      7.0713058      1987.9434      951.34513      4919.2049    
     13700   286.86864     -1470.696       7.3790558      2977.1053      2262.8663      6619.1126    
     13800   289.38121     -1470.3062      7.443686       2904.4245      4610.4331      4416.2794    
     13900   281.31425     -1469.9462      7.2361815      2885.0434      5112.743       3661.1367    
     14000   291.11399     -1470.323       7.4882579      3483.1491      4694.5237      5800.1521    
     14100   286.73729     -1470.1919      7.3756771      3265.4743      5071.1228      4794.343     
     14200   323.98474     -1469.5535      8.3337846      2807.2959      5750.5374      2727.401     
     14300   324.55703     -1468.929       8.3485056      3299.1988      6084.6902      3802.8281    
     14400   340.36547     -1469.2394      8.7551424      3164.8863      3495.708       5890.2854    
     14500   336.55679     -1470.1501      8.6571725      1631.1109     -230.91111      5044.7184    
     14600   319.27303     -1470.3223      8.2125863      1644.8874      1354.5824      3702.9021    
     14700   273.10792     -1469.0246      7.0250918      1542.5204      2365.0769      2432.9683    
     14800   262.42387     -1469.1487      6.7502686      2847.8515      6091.4222      2605.2442    
     14900   304.74543     -1469.848       7.8388962      2514.6436      5550.9824      2100.5693    
     15000   316.64904     -1470.3102      8.1450902      3149.3544      6393.1657      2881.1246    
     15100   335.36684     -1470.6023      8.6265636      3346.0685      4943.0972      4994.3733    
     15200   311.75949     -1470.2516      8.0193172      2890.6948      3480.8876      5031.4806    
     15300   283.92583     -1470.1928      7.3033585      2752.6378      4497.8         3844.3594    
     15400   298.1592      -1470.2207      7.6694801      2755.6119      3775.5764      4527.709     
     15500   293.2257      -1471.8438      7.5425769      3030.2716      3236.7417      5750.219     
     15600   290.457       -1470.5801      7.4713583      3131.8071      4553.1943      4705.6337    
     15700   300.92859     -1470.0082      7.7407164      2576.9349      3255.5351      4631.4607    
     15800   300.90614     -1469.7503      7.740139       1742.911       2252.6993      3115.8387    
     15900   306.85961     -1469.4714      7.8932788      2295.5734      2881.1803      4107.9621    
     16000   307.20201     -1470.723       7.9020863      2567.3354      3220.2979      4421.6329    
     16100   272.30469     -1470.5173      7.0044306      3067.0502      3705.1799      5493.5531    
     16200   301.97536     -1470.7885      7.7676425      3218.5958      4048.1498      5545.655     
     16300   289.19123     -1470.6438      7.4387992      3249.7023      4127.8414      5535.4942    
     16400   311.95636     -1469.92        8.0243813      2137.7841      3441.5288      2871.2287    
     16500   293.44555     -1469.666       7.548232       2981.3307      5241.368       3663.67      
     16600   266.62414     -1469.3839      6.8583112      3452.6786      4843.1464      5535.6238    
     16700   292.84805     -1470.5519      7.5328627      3425.1178      5653.3963      4561.1466    
     16800   302.51023     -1470.01        7.7814006      3082.6484      3101.6246      6191.0786    
     16900   298.54693     -1470.1732      7.6794536      2772.9661      2534.8565      5721.8397    
     17000   306.50156     -1470.4443      7.8840687      1996.3444      2570.206       3429.5088    
     17100   312.95828     -1469.8462      8.0501534      1858.3383      1217.6427      4539.3111    
     17200   319.49781     -1469.4998      8.2183683      2810.8847      2288.6305      6159.0924    
     17300   296.94716     -1469.9541      7.6383031      2479.0298      1576.7326      5850.0852    
     17400   307.22297     -1469.7071      7.9026255      2413.5652      2421.8686      4940.9837    
     17500   296.20559     -1470.7463      7.6192279      3383.8623      5408.0694      4697.3549    
     17600   285.44836     -1470.5981      7.3425222      3816.1214      6168.7125      5321.0266    
     17700   277.5181      -1469.9888      7.1385339      2305.1704      1795.6552      5245.9224    
     17800   299.52525     -1470.39        7.7046187      1923.3875      2095.0103      3714.5955    
     17900   290.05753     -1470.0534      7.4610828      2854.3237      3533.703       5043.2031    
     18000   308.35599     -1469.7486      7.9317699      3026.6003      3621.5447      5540.3953    
     18100   296.46407     -1469.6325      7.6258768      2673.0906      4512.2657      3550.0959    
     18200   294.97655     -1469.8368      7.5876136      2784.9898      4193.6774      4246.1401    
     18300   291.60858     -1469.8456      7.50098        3576.1581      5830.6171      4879.5552    
     18400   305.59572     -1470.8442      7.860768       2852.902       4397.4572      4125.3023    
     18500   313.77427     -1470.0963      8.0711429      1905.6684      3111.5317      2488.5527    
     18600   275.60196     -1470.8028      7.0892454      2272.4922      1765.4554      5150.3107    
     18700   272.73011     -1471.1425      7.0153737      2723.81        3352.1619      4765.6495    
     18800   297.18551     -1471.0392      7.6444342      2015.6704      2100.8628      3894.1687    
     18900   312.7675      -1470.3455      8.0452461      2236.9717      2930.2177      3733.8462    
     19000   310.38329     -1470.3252      7.9839176      2639.0088      4202.8688      3583.7148    
     19100   298.83364     -1470.4431      7.6868287      2643.6263      2551.8058      5204.7556    
     19200   270.60438     -1471.0677      6.9606939      2087.627       1314.5852      5082.9426    
     19300   274.00008     -1471.2232      7.0480407      2639.8236      3144.7035      4799.4491    
     19400   303.76755     -1470.2709      7.8137425      3176.0795      4690.4575      4766.9821    
     19500   313.33466     -1470.1033      8.0598349      2129.6465      2710.3564      3719.5934    
     19600   321.69517     -1470.394       8.2748906      2985.2166      4712.2684      4192.8165    
     19700   302.75433     -1470.1435      7.7876797      2758.9874      3519.4721      4827.6197    
     19800   308.00907     -1470.0884      7.922846       2827.2377      2991.972       5442.4416    
     19900   306.66678     -1470.2115      7.8883188      2581.7017      3560.7979      4247.5271    
     20000   305.95378     -1470.7488      7.8699784      3018.5362      4022.8505      4980.2606    
     20100   319.35199     -1469.938       8.2146174      2597.0697      5575.9015      2120.5798    
     20200   312.87131     -1469.9033      8.0479164      2258.9228      2754.0773      4008.5126    
     20300   288.10498     -1469.5049      7.4108578      1478.8186     -154.62001      4839.7433    
     20400   302.50347     -1471.2682      7.7812269      2882.0849      4737.2021      3787.4827    
     20500   295.04652     -1470.4253      7.5894135      3079.0974      4849.6929      4277.2519    
     20600   284.59674     -1470.4523      7.3206163      2452.5132      3293.7898      4090.6925    
     20700   294.10748     -1470.2851      7.5652587      2493.4554      4466.1857      3033.6341    
     20800   304.88833     -1469.5957      7.8425719      2594.2092      3582.0675      4080.6484    
     20900   298.50676     -1469.9441      7.6784205      2589.9349      3561.4362      4175.0728    
     21000   311.60936     -1470.3163      8.0154557      3041.6913      5611.7887      3421.2419    
     21100   276.93767     -1469.701       7.1236036      3069.0588      5498.4448      3790.3291    
     21200   286.00909     -1470.7495      7.3569456      2146.2316      1228.0324      5328.5154    
     21300   293.91466     -1469.1406      7.5602989      2293.754       1450.0047      5584.9449    
     21400   317.08492     -1470.1286      8.1563021      2585.2979      2352.8633      5469.6423    
     21500   292.69036     -1470.5388      7.5288066      3616.3004      5461.4933      5252.7511    
     21600   296.74821     -1469.8913      7.6331857      3706.153       6260.4095      4733.0227    
     21700   292.76824     -1470.0537      7.5308098      2827.117       4075.727       4369.5701    
     21800   273.43025     -1471.0884      7.0333831      2231.6153      4900.624       1784.7175    
     21900   284.00637     -1470.0917      7.3054302      2322.4917      6159.6636      711.09823    
     22000   282.97856     -1469.3953      7.2789921      2180.0407      4555.1372      2183.121     
     22100   283.00078     -1469.8315      7.2795637      3014.157       3041.6098      6005.5522    
     22200   279.53399     -1470.6057      7.1903881      2714.1823      3970.3533      4237.1556    
     22300   291.99913     -1470.0223      7.5110261      3343.2355      5931.6743      3971.6987    
     22400   295.46829     -1469.4874      7.6002626      2714.2732      4170.6075      3930.5253    
     22500   323.44845     -1469.4634      8.3199896      2822.8193      4620.6309      3994.0944    
     22600   325.92912     -1469.2358      8.3837994      1719.6008      1672.17        3594.0796    
     22700   344.9779      -1470.4676      8.8737868      2745.7734      2322.0996      5659.8986    
     22800   324.47766     -1469.3555      8.3464638      3917.9013      6353.832       5190.5923    
     22900   286.15217     -1470.0658      7.360626       3247.9719      4789.1013      4857.1714    
     23000   319.26734     -1469.5826      8.2124399      3145.6368      4060.965       5393.8726    
     23100   306.00823     -1470.8045      7.871379       3432.054       4970.952       5110.0828    
     23200   288.76702     -1470.6578      7.4278873      3478.567       5850.9386      4515.0344    
     23300   310.70063     -1470.5784      7.9920806      3331.6034      5188.5365      4867.6607    
     23400   313.18573     -1469.3895      8.0560041      3144.8743      5053.8122      4367.9786    
     23500   307.91085     -1471.1243      7.9203196      1890.0847      4891.6507      822.01656    
     23600   275.82508     -1469.3103      7.0949847      2193.2135      3684.5596      3160.8717    
     23700   307.49824     -1469.4046      7.9097062      3020.266       4186.8634      4839.2839    
     23800   310.70456     -1470.1813      7.9921817      3131.5982      4021.49        5130.0591    
     23900   321.62092     -1469.8733      8.2729806      3138.4748      3876.0035      5365.4846    
     24000   332.97255     -1469.4521      8.564976       3134.8486      3601.1664      5672.5962    
     24100   303.33267     -1469.4366      7.8025562      2439.2196      2840.0983      4494.9474    
     24200   305.30813     -1469.4927      7.8533704      2196.5983      3076.7932      3414.7231    
     24300   319.34115     -1470.3731      8.2143387      2542.9633      3603.8466      4073.8354    
     24400   291.97825     -1470.3513      7.510489       2592.2672      2100.0516      5555.676     
     24500   290.08146     -1470.2043      7.4616983      2216.1797      3242.0546      3506.7847    
     24600   306.59704     -1469.6326      7.8865247      2823.0588      3816.4328      4631.2096    
     24700   298.44928     -1469.6327      7.6769418      2582.8291      5601.7963      2339.6613    
     24800   304.83653     -1469.5018      7.8412396      2911.0496      4948.8368      3795.2878    
     24900   280.59721     -1469.1833      7.2177371      2674.0244      3739.1707      4430.4064    
     25000   291.61884     -1470.623       7.501244       2989.8805      5253.3595      3878.6964    
     25100   284.21922     -1470.04        7.3109053      3156.6053      4412.2664      5196.5589    
     25200   285.34027     -1470.749       7.3397419      2650.7534      3827.727       4307.4302    
     25300   279.99563     -1470.9114      7.2022628      2988.9901      4153.1286      4810.1565    
     25400   253.20467     -1470.0665      6.5131251      2279.8487      3521.0152      3485.2907    
     25500   270.93678     -1470.2994      6.9692442      1189.7164      2007.6846      1843.1681    
     25600   292.38371     -1469.645       7.5209187      2520.0135      3523.7676      4085.5383    
     25700   286.92094     -1471.126       7.3804011      2678.6217      3644.3118      4308.7046    
     25800   297.31324     -1470.0415      7.6477199      2643.7788      3276.4513      4705.5721    
     25900   338.28142     -1469.6381      8.7015347      2854.0805      5998.3424      2587.7694    
     26000   316.12601     -1469.9475      8.1316362      2614.1981      5493.7941      2287.1115    
     26100   320.79006     -1469.402       8.2516087      2173.5683      5299.6193      1371.2308    
     26200   306.73146     -1470.648       7.8899824      1873.2246      2498.4395      3027.0961    
     26300   286.4074      -1470.2352      7.3671913      2677.1123      4298.8515      3726.9443    
     26400   302.45023     -1469.32        7.7798574      2391.9428      2186.7811      5233.4626    
     26500   323.59131     -1469.7757      8.3236644      3389.5968      5666.6104      4488.3911    
     26600   320.61233     -1468.8185      8.2470368      3080.0884      4414.2734      4678.1274    
     26700   319.80299     -1469.2506      8.2262183      2289.4592      3778.2879      3146.8834    
     26800   338.15421     -1468.8275      8.6982626      2301.7801      2393.4266      4445.9758    
     26900   321.24512     -1469.2289      8.2633141      2071.9519      2910.9558      3459.6107    
     27000   298.38        -1469.6184      7.6751598      3125.7568      4483.8219      4914.5387    
     27100   344.04558     -1469.7932      8.8498048      2938.8855      3791.0436      4967.0352    
     27200   285.07621     -1470.5472      7.3329495      3022.0175      5662.7367      3322.2931    
     27300   304.60691     -1470.7435      7.8353331      3148.6526      5346.634       3955.1172    
     27400   276.12906     -1470.2807      7.1028041      3306.9111      4534.0773      5423.4328    
     27500   285.6456      -1469.9922      7.3475957      2801.095       3179.5987      5449.6547    
     27600   314.70312     -1470.5421      8.0950357      3215.1528      3922.1361      5740.0601    
     27700   282.77306     -1470.0201      7.2737062      3464.4516      5410.3749      5067.6002    
     27800   311.55867     -1469.9729      8.0141516      3211.0114      6794.9819      2718.5421    
     27900   295.95812     -1470.9041      7.6128623      2233.5641      2688.0008      3965.9222    
     28000   276.3255      -1470.5664      7.1078569      2244.3793      2655.2484      3913.7217    
     28100   297.50438     -1470.0977      7.6526363      3049.6826      3246.5106      5836.9936    
     28200   299.91374     -1469.998       7.7146118      2978.9804      4699.0132      4259.0182    
     28300   284.90206     -1469.9302      7.3284699      2343.3723      3106.0651      4045.814     
     28400   307.78084     -1470.0751      7.9169755      2723.6674      3379.1114      4785.3668    
     28500   297.20296     -1470.8793      7.6448832      3075.3808      2645.7078      6422.036     
     28600   287.69797     -1470.0429      7.4003884      1337.1488      2002.8673      2037.2109    
     28700   294.87055     -1469.5383      7.5848869      2852.992       4336.0638      4115.7702    
     28800   303.53691     -1469.4654      7.8078098      3331.1343      4981.2077      5054.9098    
     28900   290.00624     -1470.3504      7.4597636      3747.9635      6006.8915      5228.6917    
     29000   285.15575     -1470.0773      7.3349954      3513.4162      6447.0169      4096.4693    
     29100   313.26954     -1471.479       8.0581599      3340.6712      4880.1158      5237.2387    
     29200   289.30155     -1470.7115      7.4416368      3474.3306      5248.0481      5190.4955    
     29300   281.95955     -1470.6432      7.2527802      3257.5577      3850.247       5952.9653    
     29400   305.88523     -1470.3111      7.868215       3040.3085      4278.8208      4833.2528    
     29500   305.15121     -1469.313       7.849334       2465.1772      4118.1562      3510.4615    
     29600   284.94523     -1469.4984      7.3295803      2134.2649      3669.4806      2847.5507    
     29700   314.79973     -1469.4974      8.0975206      2830.5493      4589.5107      3954.9038    
     29800   307.05636     -1469.5139      7.8983397      2101.9722      2147.4927      4391.0442    
     29900   309.15852     -1469.547       7.9524133      1095.0336     -137.84336      3569.8687    
     30000   340.88234     -1468.6341      8.7684377      2031.929       1884.4949      4107.6808    
     30100   290.02593     -1469.7689      7.46027        2539.8928      3758.8432      3993.4324    
     30200   309.95852     -1469.4754      7.9729914      1936.0714      1065.276       4973.3007    
     30300   336.50599     -1470.2395      8.6558657      2841.6621      2262.1625      6223.608     
     30400   319.4739      -1470.31        8.2177532      3264.2471      5589.3898      4292.4398    
     30500   319.6462      -1470.2733      8.2221852      3350.2226      4686.4897      5209.1528    
     30600   286.21878     -1470.1698      7.3623396      2458.9325      2994.3898      4540.6104    
     30700   295.77799     -1470.852       7.6082288      2502.9184      2482.1729      5087.9565    
     30800   294.50601     -1470.1812      7.5755101      3133.5403      3574.2006      5889.599     
     30900   299.15865     -1470.4087      7.6951888      2803.657       3882.132       4638.8977    
     31000   315.94339     -1470.2236      8.1269389      3220.8315      3838.1846      5611.8271    
     31100   284.70981     -1470.7324      7.3235246      2840.3187      4355.1762      4097.4848    
     31200   272.98705     -1470.8102      7.0219828      2931.9082      6543.0265      2292.6378    
     31300   306.96295     -1470.0319      7.8959369      3031.59        4101.5305      4935.7994    
     31400   307.94238     -1469.9068      7.9211307      3125.6401      3364.1512      6137.7866    
     31500   312.00712     -1470.3525      8.025687       3354.7951      5612.5826      4367.2833    
     31600   287.80817     -1469.8881      7.4032229      3278.2447      5104.9388      4732.5903    
     31700   307.26785     -1468.839       7.90378        1837.964       209.29494      5444.7916    
     31800   275.01601     -1469.7901      7.0741733      1212.5488      350.5523       3396.9655    
     31900   273.72688     -1469.8753      7.0410133      2953.9801      3066.1919      5871.9985    
     32000   277.27759     -1470.8435      7.1323473      3242.3242      3429.5716      6287.6664    
     32100   298.36991     -1470.6909      7.6749003      3373.0667      3822.4842      6280.0587    
     32200   300.1821      -1470.3233      7.7215149      2153.8747      2022.8395      4563.1476    
     32300   291.60732     -1469.3994      7.5009476      1906.1506      2163.174       3561.7743    
     32400   322.74006     -1470.7566      8.3017679      2217.0869      1643.2744      4919.0682    
     32500   323.20773     -1470.1884      8.3137977      2258.4062      2534.9667      4099.1345    
     32600   304.91824     -1470.1551      7.8433413      2619.2953      3623.8192      4105.6786    
     32700   299.11513     -1469.042       7.6940693      3212.6479      5123.1374      4619.646     
     32800   286.0677      -1469.4548      7.3584533      2189.3189      2101.5973      4696.3147    
     32900   296.60494     -1470.3853      7.6295002      2496.8437      3353.1859      3969.9186    
     33000   288.9424      -1470.642       7.4323985      2205.9221      3086.5665      3654.7562    
     33100   294.61587     -1470.7798      7.578336       1816.3439      3423.1419      2070.3709    
     33200   306.66891     -1469.8901      7.8883736      1668.1173      4395.496       760.2452     
     33300   324.50537     -1470.4067      8.3471767      3008.6878      4227.5606      4698.0019    
     33400   306.72244     -1469.742       7.8897503      2503.5724      3314.2094      4257.5999    
     33500   290.22101     -1470.391       7.4652881      3057.677       4857.4292      4217.3659    
     33600   301.37096     -1471.1347      7.7520956      3455.9701      5316.3349      5045.8192    
     33700   271.19248     -1470.4835      6.9758215      3014.3937      3458.1467      5548.2643    
     33800   287.97173     -1470.5174      7.4074303      2674.9229      5283.7076      2614.5762    
     33900   303.71809     -1470.5186      7.8124703      3150.1027      5592.6702      3750.6537    
     34000   299.71867     -1469.5987      7.7095942      2895.5704      4260.6258      4638.6539    
     34100   290.69932     -1470.0616      7.4775913      2275.6388      3609.9698      3311.5041    
     34200   295.38916     -1470.0958      7.598227       2339.9799      3699.8446      3296.439     
     34300   298.3805      -1470.2645      7.6751727      2697.8504      4375.5987      3717.1202    
     34400   287.67642     -1469.9047      7.3998341      2396.8187      3172.7352      4043.882     
     34500   315.82403     -1470.4728      8.1238685      2112.5151      324.95519      5926.7371    
     34600   310.32121     -1470.123       7.9823208      1983.7443      1700.0728      4347.7358    
     34700   255.02349     -1469.81        6.5599103      2178.1904      2838.2438      3835.0089    
     34800   319.09566     -1470.4296      8.2080239      2852.9535      5448.6392      3095.6782    
     34900   311.22612     -1470.4089      8.0055975      2272.6992      3748.6739      3069.2529    
     35000   289.18182     -1470.4059      7.4385572      2516.6881      4953.9877      2665.8447    
     35100   290.49209     -1470.2007      7.4722609      2819.891       4503.8267      3980.8065    
     35200   313.4321      -1469.8888      8.0623415      2913.5803      4320.2507      4445.4145    
     35300   299.54678     -1469.7693      7.7051726      1604.62        1810.0686      3132.2936    
     35400   292.32695     -1470.2414      7.5194584      1126.8193      691.99227      2882.5195    
     35500   326.08078     -1471.2108      8.3877005      2889.7169      5021.6714      3611.0547    
     35600   280.54629     -1470.1431      7.2164274      2652.8207      4508.616       3423.0131    
     35700   294.12052     -1471.2645      7.5655942      2345.6253      4122.1463      2917.8509    
     35800   285.66306     -1470.1834      7.3480448      1948.1077      3139.7396      2899.6063    
     35900   307.16808     -1470.6438      7.9012134      2653.4919      2713.225       5166.8082    
     36000   303.51791     -1469.6876      7.807321       2508.2313      3448.7986      4139.8688    
     36100   308.75502     -1470.0238      7.9420339      2296.8031      4856.5955      2124.7522    
     36200   272.36063     -1470.3372      7.0058695      2129.3919      5793.7561      739.73753    
     36300   307.99768     -1469.4824      7.9225532      2833.8089      6354.2364      2085.2935    
     36400   303.61354     -1469.7614      7.8097809      2496.2644      3086.3636      4491.6508    
     36500   322.64212     -1469.9383      8.2992486      2691.2475      4351.0833      3710.732     
     36600   303.15483     -1470.7525      7.7979817      2409.7007      3898.9555      3273.3141    
     36700   294.84221     -1470.8426      7.584158       2527.8042      3773.0172      3883.8383    
     36800   293.7278      -1469.7475      7.5554923      1828.3003      3343.6543      2233.6275    
     36900   297.15886     -1470.2472      7.6437486      1637.1555      820.60678      4097.7379    
     37000   325.94912     -1470.5988      8.3843138      2168.2774      2053.4644      4309.4026    
     37100   338.59092     -1469.8164      8.709496       3626.4752      5179.0722      5435.6501    
     37200   308.36995     -1470.8607      7.9321289      3485.827       5464.907       5023.9762    
     37300   312.41735     -1470.1354      8.0362393      3666.613       6537.1914      4378.8569    
     37400   305.37697     -1470.4493      7.8551412      3321.0173      4273.1116      5556.5072    
     37500   316.96134     -1470.0751      8.1531234      2554.0014      3821.3631      3993.2427    
     37600   308.71036     -1470.3925      7.9408853      2827.3527      3854.8828      4431.5586    
     37700   318.28037     -1469.6884      8.1870523      2929.1863      4021.3456      4650.9436    
     37800   271.13384     -1470.429       6.974313       2288.7679      1249.3424      5825.5468    
     37900   291.63837     -1470.4779      7.5017463      1970.1915      2054.8041      3940.508     
     38000   307.93251     -1470.6292      7.9208767      2280.0635      2537.1165      4170.4234    
     38100   300.18749     -1469.7722      7.7216533      2299.4857      2664.037       4416.2749    
     38200   266.12323     -1469.4277      6.8454263      1597.4486      2755.4075      2241.0029    
     38300   319.41917     -1470.9573      8.2163455      2384.3528      4033.3751      3122.6101    
     38400   291.13595     -1470.6409      7.4888227      2741.4778      3300.7373      4839.9701    
     38500   287.64105     -1470.9136      7.3989242      3089.8891      4653.6859      4637.3596    
     38600   288.02673     -1470.052       7.4088451      3257.5125      3297.524       6418.1163    
     38700   307.54857     -1470.2678      7.9110008      2690.9519      3988.6581      4089.0424    
     38800   302.88731     -1469.3393      7.7911004      2358.7628      5017.5689      2286.5726    
     38900   320.00463     -1469.5742      8.231405       3285.6975      4968.8619      5016.4913    
     39000   327.49996     -1469.1528      8.4242059      2536.9383      5489.5421      2025.934     
     39100   283.65291     -1470.408       7.2963383      2068.4038      3096.6634      3071.2268    
     39200   292.9682      -1470.2625      7.5359532      2827.1105      4878.7739      3518.6276    
     39300   279.9759      -1470.2816      7.2017554      2323.8667      5111.552       1902.8712    
     39400   291.75195     -1470.2901      7.5046681      2147.9967      3662.4685      2812.9517    
     39500   280.49095     -1469.4557      7.215004       2209.9307      3986.5744      2937.3311    
     39600   341.79012     -1470.4036      8.7917882      1800.203       2063.742       3302.9781    
     39700   295.3955      -1470.713       7.5983901      2240.596       1832.9092      4882.9812    
     39800   329.16831     -1470.5107      8.4671203      2878.6647      3957.2222      4621.2964    
     39900   289.29982     -1470.2554      7.4415924      3404.8129      4807.5951      5290.2871    
     40000   314.15913     -1470.6661      8.0810428      2339.1932      3659.3734      3271.3799    
     40100   290.7827      -1469.5709      7.4797362      1463.2813      3647.0272      813.13053    
     40200   314.49896     -1469.9691      8.089784       2147.1825      4050.5192      2445.6844    
     40300   333.0439      -1470.5959      8.5668114      1823.6258      4622.9519      728.36888    
     40400   296.67447     -1469.2815      7.6312887      1662.1751      4175.7486      876.8017     
     40500   297.42652     -1470.6755      7.6506337      3185.2715      5041.6102      4370.2446    
     40600   282.30059     -1470.6606      7.2615528      3104.3621      4222.2665      5151.4683    
     40700   289.15409     -1470.2958      7.4378439      1377.6621      3136.2223      1187.6581    
     40800   292.76245     -1470.08        7.5306608      1857.0746      3285.2756      2337.6133    
     40900   301.17017     -1469.6885      7.7469306      3288.2124      4798.1331      4991.6304    
     41000   315.7415      -1470.4735      8.1217457      2166.7906      1755.3681      4771.0194    
     41100   303.40404     -1470.0056      7.804392       1670.6844      641.85448      4458.8526    
     41200   318.52942     -1469.8085      8.1934586      1887.3425      1426.3901      4262.064     
     41300   313.72725     -1470.5984      8.0699336      2538.9439      3666.7684      3888.9809    
     41400   310.03165     -1470.3107      7.9748726      3703.3876      4191.849       6685.4443    
     41500   315.87897     -1469.7951      8.1252817      2690.1819      3040.395       5054.4847    
     41600   279.98769     -1469.7067      7.2020585      2229.582       2163.7156      4534.9845    
     41700   285.77255     -1470.4967      7.3508612      2537.0679      2754.3885      5043.6438    
     41800   316.3707      -1470.5979      8.1379304      3345.4343      5033.6701      4786.1912    
     41900   290.7942      -1470.3399      7.480032       3053.534       4987.3589      4117.6667    
     42000   302.17273     -1470.5561      7.7727193      2706.3394      4562.8953      3474.2909    
     42100   310.28197     -1469.3856      7.9813114      2842.7917      5277.446       3261.4111    
     42200   301.03209     -1469.7406      7.743379       3259.0848      3950.6382      5890.0133    
     42300   302.72808     -1469.7106      7.7870046      3708.2196      5827.9321      5290.7205    
     42400   299.54521     -1469.3486      7.7051321      3306.7745      5263.0779      4714.43      
     42500   311.41557     -1469.6103      8.0104707      3060.0886      5288.4276      4096.4872    
     42600   307.86853     -1470.7323      7.9192311      2691.8795      5762.9258      2162.366     
     42700   303.36093     -1470.7249      7.803283       2959.4465      4783.7865      4125.7507    
     42800   287.47066     -1470.631       7.3945415      3008.6658      5347.0041      3661.21      
     42900   300.71996     -1470.888       7.7353501      3585.3051      5720.0822      4806.8302    
     43000   295.57628     -1470.5753      7.6030403      3209.6808      5468.9046      4074.811     
     43100   313.05708     -1470.2629      8.052695       2557.2508      3616.8221      4101.7027    
     43200   292.4209      -1469.8019      7.5218751      3060.2047      4185.7405      5128.722     
     43300   277.05495     -1470.7334      7.1266203      3667.2152      4502.0926      6396.5926    
     43400   310.90296     -1469.8588      7.997285       3325.0411      3672.5414      6143.3602    
     43500   292.4838      -1470.0588      7.5234932      2852.2709      4776.4197      3943.482     
     43600   305.815       -1470.4317      7.8664085      3260.319       5974.2926      3808.4712    
     43700   275.18696     -1469.7569      7.0785705      2593.4906      4595.1831      3438.7821    
     43800   286.62701     -1470.055       7.3728403      3047.6245      3543.2958      5691.4709    
     43900   331.90606     -1470.8329      8.5375428      2745.0156      2988.698       5164.499     
     44000   273.94244     -1470.0161      7.046558       1851.3376      4985.5732      720.86515    
     44100   272.67506     -1469.8203      7.0139576      2256.6678      6179.6992      861.2162     
     44200   299.29028     -1470.1306      7.6985747      2996.1604      4018.7268      5022.6516    
     44300   285.59973     -1470.5045      7.3464157      3184.3274      3635.5341      6049.8745    
     44400   298.59754     -1470.4925      7.6807555      2371.5695      2077.3649      5033.2094    
     44500   296.98244     -1469.7989      7.6392108      2120.6164      2434.3802      4016.8636    
     44600   288.6537      -1469.2539      7.4249724      1713.8041      1020.3694      4163.0106    
     44700   321.64094     -1469.6859      8.2734955      2850.1255      2602.7691      5978.4328    
     44800   290.76125     -1469.7758      7.4791844      3939.1086      4358.3355      7372.2863    
     44900   299.37609     -1469.7568      7.700782       3479.2306      6789.6671      3642.5061    
     45000   321.98151     -1469.6928      8.282256       2068.4044      6271.6075      5.3924876    
     45100   328.83911     -1469.6002      8.4586524      1591.8719      4268.4102      546.78559    
     45200   295.31325     -1470.2452      7.5962744      2211.1623      4442.8102      1924.4382    
     45300   295.98408     -1469.7413      7.61353        2079.9826      3430.3537      2712.4621    
     45400   290.046       -1470.4975      7.4607861      2435.5534      4472.9271      2898.3155    
     45500   276.24958     -1469.5683      7.1059041      3245.3337      4503.2163      5257.4234    
     45600   288.07088     -1469.0794      7.4099806      3131.6152      4553.7801      5008.9819    
     45700   321.6257      -1469.6367      8.2731034      3309.6913      6181.4401      3721.9796    
     45800   275.93156     -1469.4272      7.0977236      3281.5687      5471.0482      4472.0968    
     45900   321.60311     -1469.6038      8.2725225      2923.9581      5436.581       3353.921     
     46000   300.4285      -1470.7344      7.7278528      2490.8815      4993.9668      2372.8779    
     46100   287.63752     -1469.9907      7.3988334      2094.6064      3847.0478      2516.2511    
     46200   309.07261     -1470.3639      7.9502033      2044.7181      1153.6904      4991.0069    
     46300   286.29073     -1469.8863      7.3641901      2168.823       2714.9779      4003.3258    
     46400   303.54062     -1469.5343      7.8079052      2952.3138      4201.0754      4756.5044    
     46500   315.64501     -1470.2069      8.1192636      2707.6832      4721.05        3563.8152    
     46600   299.32082     -1470.2204      7.6993603      2551.9693      3050.7093      4493.8816    
     46700   309.01736     -1469.5167      7.9487822      1356.6124      623.66877      3651.1461    
     46800   265.95182     -1469.265       6.8410171      2180.6445      1715.2728      5082.6574    
     46900   294.53651     -1469.4866      7.5762945      2785.6322      3186.2619      5233.8249    
     47000   311.4305      -1469.9526      8.0108547      1970.5649      1075.3624      4760.7901    
     47100   281.48193     -1470.1895      7.2404947      1917.0355      3789.9869      2145.6812    
     47200   281.87147     -1470.7868      7.2505146      2498.0385      4497.2368      2966.2445    
     47300   272.79272     -1470.662       7.0169841      2543.4079      4151.4665      3534.5034    
     47400   271.08052     -1471.0708      6.9729415      3011.7502      6047.9047      2912.3177    
     47500   280.03248     -1469.7754      7.2032106      3091.9482      4537.6959      4779.3365    
     47600   310.38211     -1469.4457      7.9838873      3527.8109      5500.6119      5138.5492    
     47700   311.42235     -1469.7919      8.0106451      3316.2056      5399.2457      4628.579     
     47800   302.95459     -1470.2529      7.792831       2087.7907      2283.5217      3993.2847    
     47900   298.25264     -1470.4535      7.6718836      2213.4963      1081.5548      5579.3299    
     48000   295.60551     -1470.6101      7.6037922      2576.136       2977.0757      4761.924     
     48100   296.67786     -1470.19        7.6313761      3013.3319      5809.3165      3254.3256    
     48200   295.5792      -1469.1496      7.6031153      2271.5003      4048.4707      2798.9351    
     48300   298.16257     -1469.007       7.6695669      1756.2943      2108.5455      3347.2864    
     48400   317.65759     -1470.0452      8.1710326      1868.2969      3431.475       2318.7059    
     48500   317.37717     -1470.6354      8.1638196      2578.6576      4768.5113      2945.598     
     48600   298.40045     -1470.7694      7.6756859      2485.8295      2195.6819      5296.8401    
     48700   269.40655     -1469.7616      6.9298824      1716.988       2351.6124      2926.6332    
     48800   301.08425     -1470.8493      7.7447207      2308.399       3780.4089      3336.5113    
     48900   300.30819     -1470.385       7.7247582      3089.4188      4364.224       4909.9972    
     49000   309.19148     -1469.6273      7.9532609      2532.5885      4187.9048      3597.384     
     49100   277.73622     -1470.3458      7.1441447      3504.4015      5273.597       5249.3176    
     49200   283.7086      -1469.9942      7.2977708      3615.4418      4987.2884      5709.0342    
     49300   299.39842     -1470.6113      7.7013564      3547.3282      5260.0328      5386.8524    
     49400   293.45907     -1470.7097      7.5485798      3520.2407      5181.6549      5262.1148    
     49500   305.67057     -1469.6778      7.8626935      3320.5066      4951.7011      4897.3047    
     49600   297.78248     -1469.7348      7.6597898      2693.1822      4336.0966      3782.491     
     49700   277.22138     -1470.897       7.1309014      2843.5638      4287.9857      4233.5928    
     49800   283.94291     -1469.9948      7.3037978      3641.4724      5172.0688      5835.5082    
     49900   311.09173     -1469.26        8.0021408      2802.8319      1776.0213      6506.8572    
     50000   322.54096     -1470.2402      8.2966467      2207.7647      1575.2382      4961.618     
     50100   274.82968     -1470.4898      7.0693803      2967.519       4403.9366      4623.4455    
     50200   298.47268     -1470.4639      7.6775438      2784.4473      5534.7674      2961.5657    
     50300   291.10598     -1470.1671      7.4880519      2818.4125      4845.5683      3529.2566    
     50400   328.08721     -1470.5453      8.4393115      2564.5716      3430.3562      4195.4788    
     50500   315.07533     -1470.4579      8.1046098      2689.4918      3035.9335      4958.7923    
     50600   311.32445     -1470.8321      8.008127       2775.5344      4703.3848      3499.2952    
     50700   299.11059     -1470.8264      7.6939526      881.50971      3207.5349     -439.52263    
     50800   308.85509     -1470.4735      7.944608       2351.3121      5386.5843      1678.7342    
     50900   297.47881     -1470.3893      7.6519786      2833.2352      6058.9505      2521.4477    
     51000   312.57794     -1469.6683      8.04037        2910.971       5156.2338      3758.5551    
     51100   314.39906     -1470.2683      8.0872143      1784.2579      4520.1422      1018.3426    
     51200   306.37815     -1470.6828      7.8808944      1382.9858      3915.6163      201.25862    
     51300   311.5682      -1470.5795      8.0143967      2602.6251      4920.6259      2846.6634    
     51400   315.15664     -1469.8984      8.1067014      2685.291       2451.6448      5524.0364    
     51500   326.72771     -1470.415       8.4043414      2764.4143      2365.1967      5826.5793    
     51600   295.73825     -1469.5052      7.6072066      2683.9335      3024.2581      5232.0896    
     51700   319.19687     -1469.9753      8.2106274      3315.7508      3417.7116      6504.2609    
     51800   293.4457      -1470.1794      7.5482359      3424.9328      4942.6785      5229.7515    
     51900   301.63653     -1470.8895      7.7589267      2818.4399      2709.2828      5573.0613    
     52000   288.89012     -1469.886       7.4310538      2184.4984      4303.1309      2218.4244    
     52100   290.87796     -1470.729       7.4821866      3370.2927      5062.8996      4863.6677    
     52200   308.99106     -1470.7237      7.9481055      3142.2763      5088.8641      4252.5959    
     52300   303.88022     -1470.563       7.8166407      3409.3194      4250.4849      5977.9178    
     52400   247.98508     -1470.0959      6.3788628      2879.7676      4361.7078      4511.8338    
     52500   283.41912     -1470.4619      7.2903246      2595.6416      3884.3533      3957.7141    
     52600   291.04577     -1470.9439      7.4865032      3065.4266      3545.9718      5536.966     
     52700   292.62588     -1471.0154      7.527148       3154.5334      5866.2173      3343.2808    
     52800   292.63487     -1470.2142      7.5273791      2880.083       4099.094       4645.9995    
     52900   311.93331     -1469.122       8.0237886      1940.8916      1381.749       4474.4918    
     53000   277.60789     -1469.7648      7.1408437      1781.4522      889.30599      4562.2582    
     53100   307.35833     -1470.1974      7.9061072      2328.0766      2523.3354      4650.8092    
     53200   287.7199      -1470.8988      7.4009525      3280.704       4384.5246      5294.3504    
     53300   286.51997     -1470.3205      7.370087       3365.6752      5957.7689      4085.5944    
     53400   282.04584     -1470.1478      7.2550001      2485.2921      3546.892       4101.9218    
     53500   294.84841     -1470.0006      7.5843176      1863.6141      942.89394      4679.2372    
     53600   313.0635      -1470.4574      8.0528601      2068.7207      5557.4205      501.67658    
     53700   287.15112     -1469.9339      7.3863219      2892.3887      6736.0907      1994.1221    
     53800   323.74352     -1469.9776      8.3275798      2469.5266      2846.758       4595.809     
     53900   335.57772     -1470.1422      8.6319882      3151.2925      3322.277       6062.3521    
     54000   316.04292     -1470.5164      8.1294991      3370.2721      5201.7904      4808.3103    
     54100   303.19625     -1469.6333      7.799047       2916.6287      4672.3255      4094.7509    
     54200   295.31615     -1470.5388      7.596349       2805.0303      4366.1501      3943.2151    
     54300   312.92926     -1470.8206      8.049407       2208.6684      2960.5879      3443.3944    
     54400   266.03266     -1470.4016      6.8430967      2375.6843      1536.7052      5583.3943    
     54500   295.92299     -1470.766       7.6119586      3133.7188      5286.0111      3912.0096    
     54600   289.16293     -1469.7606      7.4380713      2388.6639      2799.4123      4560.4465    
     54700   321.30922     -1470.2249      8.2649629      3410.2615      3391.7351      6755.716     
     54800   347.31817     -1470.2113      8.9339851      3722.9552      5435.2931      5535.6643    
     54900   272.45522     -1469.4863      7.0083027      3027.1703      4439.3126      4805.286     
     55000   295.06048     -1469.8067      7.5897725      2810.886       6088.2855      2326.1307    
     55100   302.87996     -1470.801       7.7909113      2878.3904      4738.6981      3866.2463    
     55200   287.43826     -1469.7699      7.3937078      3323.5324      4648.5718      5202.6047    
     55300   314.45217     -1469.453       8.0885805      2953.4459      3321.7122      5602.4709    
     55400   321.96121     -1470.3719      8.2817338      3137.8804      3423.0036      6010.9864    
     55500   302.47827     -1470.5002      7.7805786      2191.4437      2803.7937      3913.008     
     55600   303.86142     -1470.0512      7.8161571      1912.0963      1780.5354      3959.2208    
     55700   311.18805     -1469.4218      8.0046183      2501.1781      3925.667       3795.7505    
     55800   320.78729     -1469.3623      8.2515372      2859.7343      4763.3622      4013.8893    
     55900   298.94588     -1469.3949      7.6897158      3298.7392      4245.1198      5747.1876    
     56000   312.02706     -1470.3033      8.0262         2875.1724      4010.1013      4504.9316    
     56100   281.72921     -1469.6378      7.2468555      2937.4944      4560.75        4422.6424    
     56200   286.58579     -1470.4865      7.3717801      3045.427       4744.2836      4345.3571    
     56300   273.95147     -1471.0072      7.0467904      3046.2582      5594.094       3477.4129    
     56400   304.58281     -1469.7553      7.8347132      2689.354       5536.9753      2676.5273    
     56500   306.53855     -1470.0339      7.8850202      2446.3434      5392.912       2062.3688    
     56600   321.63968     -1469.9739      8.2734632      2771.53        4728.9263      3528.4898    
     56700   302.31004     -1469.3887      7.7762512      3231.3746      4956.5616      4804.6574    
     56800   302.54496     -1470.5767      7.782294       3187.6993      5554.4355      4045.5112    
     56900   296.64555     -1470.2361      7.6305448      2562.459       3834.1453      3865.5248    
     57000   317.58824     -1469.7509      8.169249       1583.2067      2690.594       2335.7134    
     57100   331.91941     -1470.264       8.5378862      1514.7039      2033.5945      2545.6759    
     57200   304.02459     -1469.6369      7.8203543      3339.3316      3890.875       6145.4338    
     57300   295.45495     -1470.7287      7.5999195      2822.9685      3564.8931      4897.02      
     57400   312.41981     -1470.6857      8.0363025      3007.1212      5078.5099      3780.4966    
     57500   290.38149     -1469.6557      7.4694158      2853.6614      4555.7593      4021.3419    
     57600   313.01267     -1470.2355      8.0515525      2664.7808      5943.4525      2082.0014    
     57700   290.03243     -1470.3252      7.4604371      2826.3623      5064.171       3436.1304    
     57800   302.90623     -1470.7144      7.7915869      3245.3472      4794.2226      4988.3714    
     57900   293.75744     -1471.0461      7.5562547      2227.9196      4672.6462      1915.1675    
     58000   254.94773     -1469.6295      6.5579616      3198.8709      4493.3845      5121.2272    
     58100   295.51603     -1469.8365      7.6014905      2623.321       2329.2652      5609.4096    
     58200   309.74582     -1470.4254      7.96752        2215.9294      2583.0371      4190.6885    
     58300   308.21406     -1469.6572      7.9281191      2453.3346      3863.9284      3440.9079    
     58400   285.97536     -1469.664       7.356078       2150.611       2705.7535      3988.9095    
     58500   305.43556     -1470.8051      7.8566483      2350.8743      3142.1066      4002.6972    
     58600   304.99335     -1470.2581      7.8452735      2446.6482      2134.4617      5351.0055    
     58700   271.81506     -1470.6407      6.9918361      2615.5869      4425.3277      3639.8499    
     58800   289.57146     -1471.0269      7.4485798      3291.6104      4969.793       4737.0666    
     58900   294.72213     -1470.1948      7.5810692      3074.7197      4947.6115      4298.07      
     59000   317.58117     -1470.1792      8.1690671      3018.669       5460.9731      3532.9568    
     59100   291.16692     -1469.8885      7.4896195      3378.107       7061.1933      3110.7457    
     59200   259.62709     -1469.8188      6.6783277      3236.8928      3885.7659      5894.3296    
     59300   316.58576     -1470.4472      8.1434623      2987.8355      4009.4128      4915.9854    
     59400   314.52661     -1470.0994      8.0904953      3089.247       5123.0871      4099.2684    
     59500   279.22126     -1469.6446      7.182344       2645.9738      4909.5939      3000.4855    
     59600   274.58076     -1470.1236      7.0629775      2932.3127      4697.6059      3941.3646    
     59700   328.57224     -1470.6771      8.4517877      3057.5385      4131.2861      4893.3049    
     59800   299.76204     -1469.9068      7.7107096      3003.367       4794.5714      4334.951     
     59900   316.73356     -1470.0098      8.1472643      3288.0506      6484.3167      3375.821     
     60000   313.49234     -1470.8524      8.0638909      2969.1593      6503.3144      2330.4252    
     60100   316.83466     -1470.7948      8.1498648      3277.1762      5473.7963      4318.4719    
     60200   302.08777     -1470.0946      7.770534       2377.541       4583.4426      2446.5189    
     60300   316.79873     -1470.1565      8.1489404      1705.9325      2355.6945      2803.6874    
     60400   335.96759     -1470.8145      8.6420166      2072.4368      2576.8148      3479.0404    
     60500   277.84988     -1470.6583      7.1470681      2351.8837      2129.4174      4734.1655    
     60600   293.48245     -1470.9388      7.5491812      2689.9997      4668.3667      3507.3699    
     60700   310.47538     -1470.1637      7.9862864      2612.2675      4577.3393      3352.5586    
     60800   282.43109     -1469.8416      7.2649097      2427.4081      2344.9974      4908.701     
     60900   325.62101     -1470.1042      8.3758741      2499.6894      4109.2085      3209.6456    
     61000   281.08869     -1468.6563      7.2303795      3199.8521      4394.723       5488.2842    
     61100   276.37121     -1469.9791      7.1090327      3502.8475      5131.4613      5461.8438    
     61200   321.45714     -1471.2132      8.2687676      2934.3282      5244.3119      3432.0817    
     61300   318.91146     -1471.1918      8.2032859      2154.4731      3312.4531      3111.6387    
     61400   292.98853     -1470.379       7.5364763      2175.1798      4614.4975      1827.8919    
     61500   288.75692     -1470.1038      7.4276275      3151.1367      4035.9575      5559.6889    
     61600   282.16048     -1470.1846      7.2579489      3348.8414      4550.2113      5569.3159    
     61700   325.27614     -1470.2789      8.367003       2778.6862      2997.4345      5285.9764    
     61800   324.44564     -1469.8599      8.3456401      2962.8804      4003.5042      4835.2217    
     61900   309.74873     -1469.7444      7.967595       2739.6435      2955.1991      5320.9708    
     62000   303.90473     -1469.7936      7.8172711      3187.5155      5445.8955      4120.1126    
     62100   283.05548     -1469.9506      7.2809707      3423.3132      6664.0666      3598.7702    
     62200   316.60772     -1470.6309      8.1440271      3163.4457      5760.4392      3638.5632    
     62300   314.87372     -1470.5145      8.0994239      2298.8358      5040.6343      1762.2923    
     62400   287.71333     -1470.6622      7.4007834      2433.2809      3867.331       3374.8285    
     62500   293.03064     -1470.5729      7.5375594      3239.2192      5164.0417      4486.6223    
     62600   312.29794     -1469.1784      8.0331676      2710.2455      5233.3082      2982.5487    
     62700   293.24317     -1469.3814      7.5430264      1548.8654      3378.6017      1473.2205    
     62800   295.75482     -1469.9211      7.6076328      1951.6862      2463.3579      3661.9777    
     62900   322.98431     -1469.6501      8.3080507      2370.914       2968.8482      4182.7284    
     63000   280.47455     -1469.2534      7.214582       2567.6958      4042.9801      3847.0476    
     63100   310.80164     -1471.1473      7.9946787      2812.1107      3327.4885      4803.0878    
     63200   284.29556     -1470.5121      7.3128691      2834.0391      4565.5815      4007.2025    
     63300   305.0808      -1469.3745      7.847523       2979.1245      3317.42        5670.2903    
     63400   294.92361     -1469.9991      7.5862518      3390.1466      4624.7769      5527.5873    
     63500   344.56884     -1469.722       8.8632645      2838.1786      3149.8599      5410.6513    
     63600   303.60181     -1469.8983      7.8094791      2944.2134      3716.4399      4963.5138    
     63700   301.48518     -1469.6937      7.7550336      3636.6027      5884.5801      4963.0983    
     63800   302.63402     -1470.1891      7.784585       3690.0827      5710.2979      5312.6737    
     63900   310.90314     -1470.2598      7.9972897      3172.4035      4107.565       5357.5545    
     64000   309.13031     -1469.9094      7.9516875      2860.2581      3843.9908      4670.9424    
     64100   322.27573     -1470.104       8.2898242      2313.2976      3574.7405      3307.1289    
     64200   308.83009     -1469.683       7.9439651      2693.774       4408.7631      3576.8725    
     64300   305.88605     -1469.252       7.8682361      2201.008       2806.4448      3840.2907    
     64400   295.38619     -1468.9582      7.5981508      2649.4158      4990.5407      3059.0829    
     64500   312.34614     -1470.2926      8.0344075      2865.668       4628.1347      3947.5408    
     64600   294.34107     -1470.3708      7.5712673      3921.605       5507.9945      6222.1093    
     64700   291.17927     -1469.6266      7.4899371      3234.9629      5156.1393      4607.9578    
     64800   317.91479     -1469.7227      8.1776486      2891.5224      3821.8428      4830.2123    
     64900   299.38752     -1469.7288      7.7010759      3087.4357      5994.9131      3279.9446    
     65000   303.13905     -1469.6038      7.7975756      3237.8701      5226.1916      4626.5865    
     65100   297.80159     -1469.6473      7.6602815      2456.1789      4923.6569      2605.3753    
     65200   317.39029     -1469.8073      8.164157       1027.9208      2539.8688      676.0512     
     65300   316.14543     -1470.1192      8.1321357      1617.6873      1723.7349      2928.0745    
     65400   301.9949      -1469.9921      7.768145       3078.1593      4731.8004      4490.373     
     65500   288.62284     -1470.4553      7.4241785      3313.3269      4421.0438      5595.7769    
     65600   290.79393     -1470.6223      7.480025       3622.9824      4354.0969      6532.3485    
     65700   302.43577     -1469.718       7.7794855      2996.4336      4282.3522      4769.7816    
     65800   320.12968     -1470.2791      8.2346217      2430.76        3679.255       3356.9758    
     65900   298.96489     -1469.8689      7.6902048      2304.3885      3375.8086      3570.4517    
     66000   308.63805     -1469.8111      7.9390252      2519.2557      4231.7131      3080.4488    
     66100   281.68175     -1470.1508      7.2456346      2017.1004      2452.4093      3798.3775    
     66200   342.64747     -1470.3721      8.8138418      2186.3888      3408.807       2987.819     
     66300   333.64466     -1470.7158      8.5822645      1472.6575      1179.6193      3095.1444    
     66400   303.34175     -1469.8584      7.8027897      1585.766       1734.8908      2958.3098    
     66500   305.78857     -1469.7419      7.8657288      2702.4759      3775.7688      4420.2799    
     66600   324.46922     -1470.2468      8.3462466      3120.7036      4047.5775      5365.6468    
     66700   325.66528     -1470.5226      8.3770128      3089.0185      4830.6944      4484.6318    
     66800   327.32983     -1470.0292      8.4198295      2317.534       4464.4029      2355.8354    
     66900   330.65449     -1469.3872      8.5053491      1368.3368      4097.5128      160.50875    
     67000   294.08072     -1469.8399      7.5645704      1701.9862      4042.095       1141.6639    
     67100   298.23273     -1469.9467      7.6713715      2401.0942      4314.154       2856.8709    
     67200   294.07786     -1469.893       7.5644968      2296.5634      2268.5899      4707.9341    
     67300   295.51087     -1469.6163      7.6013579      1011.8912      871.90358      2360.0111    
     67400   313.51161     -1469.9203      8.0643866      1680.5562      3732.0963      1274.2484    
     67500   309.2847      -1469.5434      7.9556589      2198.8092      4803.6383      1914.3093    
     67600   312.40953     -1469.6925      8.036038       2827.3071      3464.0056      4990.4403    
     67700   305.50693     -1469.0002      7.8584841      2773.7887      2590.1619      5852.4544    
     67800   288.39461     -1469.5279      7.4183079      2846.2498      4062.6748      4649.0462    
     67900   279.47364     -1470.803       7.1888358      3426.1601      5410.0706      4853.0273    
     68000   294.38797     -1469.8866      7.5724736      2884.5322      4488.8954      4165.7197    
     68100   283.74589     -1470.6429      7.2987299      2629.1038      3473.2339      4564.8909    
     68200   262.49357     -1470.1703      6.7520614      2852.6228      4101.2903      4647.8251    
     68300   292.29444     -1469.9047      7.5186224      3112.4123      4571.9386      4778.0808    
     68400   295.31126     -1469.4455      7.5962233      2953.9442      3980.0953      4943.2671    
     68500   313.72594     -1469.9075      8.0698999      2448.7019      4574.9025      2725.862     
     68600   342.006       -1469.8403      8.7973414      2300.489       4229.0602      2693.079     
     68700   275.60052     -1469.8696      7.0892084      2645.6577      4936.831       2906.781     
     68800   319.41116     -1470.0179      8.2161396      1680.7367      3560.2969      1499.2114    
     68900   312.08618     -1469.7363      8.0277208      1704.6078      3146.5069      1943.2304    
     69000   297.40173     -1470.3747      7.6499959      2024.0961      4005.6305      2082.8795    
     69100   302.98654     -1470.8843      7.7936528      2600.4877      3650.3902      4159.2132    
     69200   320.47971     -1470.4034      8.2436254      3095.6334      4819.0188      4182.7499    
     69300   343.18384     -1469.9754      8.8276386      3289.8347      5796.8166      3985.2958    
     69400   315.25232     -1470.2825      8.1091626      3080.2722      5159.7376      4041.4635    
     69500   313.00958     -1470.5125      8.051473       2141.4925      2462.658       3872.404     
     69600   338.49864     -1470.2455      8.7071223      2142.1527      2713.0301      3510.7018    
     69700   311.59561     -1470.7759      8.0151019      2867.7573      3756.0597      4838.7929    
     69800   275.98491     -1470.0087      7.0990961      2915.9804      4180.4448      4528.658     
     69900   289.67922     -1470.4199      7.4513517      2834.2475      5553.018       3020.3772    
     70000   293.53674     -1469.9545      7.5505778      3536.9203      5427.136       5043.9405    
     70100   281.17095     -1471.0036      7.2324952      3150.8329      5793.1761      3614.8992    
     70200   301.17813     -1470.6154      7.7471354      2675.7791      4918.0978      3054.6622    
     70300   341.36399     -1469.7712      8.780827       3342.507       7054.613       2647.119     
     70400   297.75654     -1470.0086      7.6591227      2975.091       4067.4355      5046.9522    
     70500   299.56704     -1469.9558      7.7056937      2788.9643      3850.0825      4684.8349    
     70600   307.89705     -1469.8438      7.9199647      2829.5294      4326.4445      4150.4468    
     70700   289.76461     -1469.6363      7.453548       2328.2819      5410.1174      1571.3889    
     70800   322.05143     -1470.1283      8.2840544      2110.687       5028.5165      1188.2467    
     70900   295.11577     -1470.131       7.5911947      2799.0031      4877.8474      3556.4634    
     71000   304.03901     -1469.897       7.8207252      3100.9115      5319.4007      4105.3908    
     71100   289.26366     -1470.6641      7.4406623      2772.3112      4236.9466      4001.8523    
     71200   309.67884     -1470.2282      7.9657972      3129.083       4707.4452      4502.1549    
     71300   333.07454     -1469.8084      8.5675993      3077.0265      3524.8346      5589.5146    
     71400   320.0258      -1470.4726      8.2319497      2779.4368      3153.8272      5151.7985    
     71500   338.29534     -1470.8739      8.7018928      2496.7156      3554.6235      3753.3124    
     71600   305.4141      -1469.8888      7.8560963      2974.6879      5251.1768      3416.0979    
     71700   299.92218     -1470.7962      7.7148289      2041.571       5585.7522      400.23612    
     71800   292.69313     -1469.1413      7.5288777      1800.5338      7256.2716     -1773.9813    
     71900   322.42247     -1469.8285      8.2935987      2274.4198      7225.8487     -377.55211    
     72000   295.20104     -1470.0446      7.593388       2950.9268      5082.5854      3743.125     
     72100   321.42989     -1470.5819      8.2680667      3169.6716      5061.2929      4436.3382    
     72200   311.04915     -1470.4031      8.0010455      3591.1625      5535.7669      5174.7941    
     72300   313.52129     -1469.7285      8.0646356      2073.5752      853.80084      5351.7215    
     72400   287.57501     -1469.5763      7.3972255      1228.1788      2339.9622      1434.9238    
     72500   284.05223     -1469.9117      7.30661        2273.4376      5496.3758      1457.7072    
     72600   358.83696     -1470.0974      9.2302802      3714.437       6240.8871      4820.0341    
     72700   293.27825     -1470.3609      7.5439286      3395.3137      4678.0847      5499.7741    
     72800   270.68195     -1470.6533      6.9626893      2420.6466      3442.9388      3855.156     
     72900   301.09143     -1470.0682      7.7449053      3386.6054      5090.6826      4974.0472    
     73000   291.36789     -1469.7902      7.494789       2853.1889      5085.5174      3620.8021    
     73100   315.61371     -1470.0989      8.1184586      2228.6375      4623.9258      1960.5353    
     73200   294.15418     -1469.4143      7.5664599      2623.585       5206.1594      2640.8598    
     73300   289.55253     -1469.8794      7.4480929      2597.8038      4860.6222      2974.6743    
     73400   285.91359     -1470.7027      7.3544892      3466.4512      4293.1546      6040.4698    
     73500   303.55635     -1471.2434      7.8083098      3757.0286      5654.0056      5476.8657    
     73600   308.51818     -1470.7551      7.9359419      2955.9578      3186.4236      5679.7995    
     73700   307.36211     -1470.4937      7.9062046      2788.5783      3413.7978      4870.4329    
     73800   315.36403     -1470.4733      8.1120361      2823.6998      4906.4635      3489.0491    
     73900   292.1954      -1470.7918      7.5160747      3142.3082      4489.254       4834.0768    
     74000   282.85304     -1469.6266      7.2757634      3558.2544      5576.5233      5086.0738    
     74100   315.49546     -1470.3196      8.1154169      3753.6987      4994.3257      6159.3395    
     74200   276.16082     -1469.8147      7.103621       2485.0278      4984.444       2715.62      
     74300   296.33176     -1470.6298      7.6224734      2296.594       4497.6403      2493.7038    
     74400   316.25764     -1471.597       8.1350221      3376.559       4600.8837      5372.2956    
     74500   307.38409     -1471.049       7.9067698      2912.7714      4501.7195      4181.4311    
     74600   318.45026     -1470.9616      8.1914223      3385.5689      5074.6318      5032.0666    
     74700   318.94937     -1470.1153      8.2042609      3099.8371      6203.5527      3061.0665    
     74800   313.92556     -1470.7274      8.0750347      2494.2377      6084.4         1337.0228    
     74900   343.73239     -1469.8842      8.8417488      2953.0543      5014.8511      3672.2491    
     75000   306.96419     -1469.6473      7.895969       2076.228       2946.5581      3387.2561    
     75100   320.07447     -1469.9677      8.2332017      2533.2498      3914.3978      3620.0352    
     75200   303.42963     -1470.4778      7.8050503      3097.3427      5570.7586      3649.9546    
     75300   305.48398     -1469.9299      7.8578939      2924.5148      4268.2138      4458.5508    
     75400   312.52934     -1469.599       8.0391201      2701.53        4305.1206      3786.3342    
     75500   305.07216     -1469.8263      7.8473006      2548.541       1883.9623      5844.0989    
     75600   306.25915     -1469.7442      7.8778334      2296.7252      1470.5452      5502.9179    
     75700   297.83382     -1470.5123      7.6611104      2026.7923      615.29876      5379.7942    
     75800   283.58391     -1470.3164      7.2945633      1628.5084      1389.6456      3326.0186    
[...]
   1981800   307.70103     -1470.2384      7.9149225      1560.6649      3070.1528      1654.223     
   1981900   292.04112     -1470.4406      7.5121061      2015.0406      4418.2297      1632.321     
   1982000   317.42397     -1470.9177      8.1650235      2253.3641      4230.6639      2312.4837    
   1982100   277.99331     -1470.2824      7.1507577      3296.0427      5414.726       4391.2213    
   1982200   291.7856      -1469.927       7.5055336      2725.8213      4012.4803      4203.3635    
   1982300   307.42631     -1469.6957      7.9078558      2349.5454      3155.03        3910.1479    
   1982400   331.31892     -1469.8443      8.5224399      1749.0294      2380.496       2798.174     
   1982500   311.86859     -1470.2624      8.0221236      1894.4511      1798.5828      3830.45      
   1982600   310.25346     -1470.2196      7.9805782      2438.7345      2562.0865      4935.5357    
   1982700   309.23572     -1471.3981      7.954399       3204.626       5079.3341      4354.9625    
   1982800   302.83158     -1469.8683      7.7896668      2863.3937      4584.239       4098.7276    
   1982900   328.07674     -1470.3585      8.4390422      2468.8546      3963.4016      3456.8543    
   1983000   302.63406     -1470.3022      7.784586       2141.2343      4826.3033      1609.9199    
   1983100   299.53214     -1469.3629      7.7047961      1680.0907      5440.7991     -343.62526    
   1983200   286.2702      -1469.874       7.3636621      1845.6932      5637.6152     -31.264947    
   1983300   287.54577     -1470.6521      7.3964733      2795.2934      4200.3977      4177.7446    
   1983400   319.35481     -1469.7218      8.2146899      2901.0782      3791.7129      4989.4829    
   1983500   291.5308      -1470.6839      7.4989795      2939.3844      2712.2706      6042.2751    
   1983600   286.73845     -1469.8341      7.3757068      2420.5602      2118.6463      5266.0085    
   1983700   314.63775     -1470.229       8.0933542      2749.2811      3504.0682      4794.5309    
   1983800   322.50696     -1470.4732      8.295772       2119.5228      2831.1061      3466.6692    
   1983900   333.39086     -1469.4943      8.575736       2596.2347      5790.912       1993.3353    
   1984000   320.69378     -1469.5897      8.249132       2018.0822      6710.3745     -590.73841    
   1984100   299.57698     -1469.339       7.7059495      2131.5595      6207.4344      502.44415    
   1984200   280.4702      -1470.0132      7.2144702      2163.0105      4542.1272      1996.9126    
   1984300   289.44902     -1470.2721      7.4454302      2584.3786      5566.9496      2239.7169    
   1984400   295.64035     -1470.5986      7.6046884      3412.4631      6057.4879      4045.4388    
   1984500   258.8149      -1470.2871      6.6574358      3087.9384      4179.1763      5271.7251    
   1984600   311.40992     -1470.4752      8.0103253      3307.9871      4016.2148      5859.259     
   1984700   317.09509     -1470.5113      8.1565636      2160.1383      2169.0938      4310.3788    
   1984800   291.19264     -1469.8093      7.4902809      2631.7788      4311.0414      3503.7665    
   1984900   320.91671     -1469.9888      8.2548664      2677.3747      3691.1512      4307.7108    
   1985000   333.69678     -1469.9353      8.5836051      3044.0191      3701.285       5383.7145    
   1985100   284.10128     -1469.5994      7.3078716      3181.1544      4941.7002      4636.2378    
   1985200   274.45263     -1470.3974      7.0596815      3093.0669      5257.1313      3936.734     
   1985300   291.06815     -1470.0203      7.4870787      2619.9018      5000.3287      2988.6575    
   1985400   290.59136     -1470.3495      7.4748143      2401.4006      3104.8729      4160.5257    
   1985500   329.13534     -1470.8812      8.4662723      2871.618       4187.2666      4386.408     
   1985600   291.32773     -1469.368       7.4937559      3137.3115      4434.512       4866.4039    
   1985700   327.4655      -1470.1707      8.4233195      2512.4469      3262.9817      4360.8776    
   1985800   265.66107     -1469.4338      6.8335383      2352.8302      2243.1011      4860.6343    
   1985900   321.78243     -1469.2601      8.277135       2878.8906      3696.4478      4927.3601    
   1986000   306.56953     -1469.9131      7.8858172      3901.9987      5739.0118      5794.6892    
   1986100   306.94506     -1470.4753      7.8954769      3601.6247      5214.9371      5584.119     
   1986200   316.84169     -1470.2208      8.1500455      3164.5109      3882.937       5517.9898    
   1986300   288.32472     -1470.4657      7.4165102      2349.3412      3434.4869      3686.7275    
   1986400   297.82898     -1469.8017      7.6609861      2461.3011      4346.8934      3010.1285    
   1986500   298.75414     -1470.518       7.6847837      2533.4015      2629.6454      4826.2025    
   1986600   287.10219     -1470.8686      7.3850634      2627.0823      3542.6166      4185.7747    
   1986700   287.5229      -1470.2812      7.3958851      3236.4632      4955.776       4789.2507    
   1986800   257.92354     -1469.8205      6.6345076      3210.7942      5313.5948      4492.0992    
   1986900   318.78942     -1471.306       8.2001467      3115.1804      4140.5089      5166.6555    
   1987000   318.33911     -1470.4691      8.1885633      2078.0888      1845.0488      4409.7509    
   1987100   310.46766     -1470.3851      7.9860879      2630.1349      2655.8992      5116.4608    
   1987200   294.2363      -1469.7258      7.5685722      2796.8848      4045.7064      4293.1555    
   1987300   282.0323      -1470.358       7.2546516      3388.7731      5602.3827      4580.4277    
   1987400   295.69095     -1470.9025      7.60599        2914.6004      5160.3209      3726.5549    
   1987500   309.21012     -1469.4873      7.9537404      2515.158       3611.8885      4055.6479    
   1987600   303.33539     -1470.6653      7.802626       2751.0945      4693.0941      3561.2889    
   1987700   303.78314     -1470.0745      7.8141436      2661.9824      5580.2753      2487.0654    
   1987800   271.3184      -1470.2123      6.9790606      2112.3266      5902.8569      454.75174    
   1987900   287.78205     -1470.5271      7.4025511      1764.9058      5385.0222     -100.10263    
   1988000   290.13853     -1470.9904      7.4631664      2649.8776      7651.9768      329.94408    
   1988100   296.74578     -1470.5602      7.633123       2951.2538      4595.8629      4169.8529    
   1988200   320.73066     -1470.3186      8.2500806      2090.4206      2980.9357      3350.5038    
   1988300   299.55494     -1470.1188      7.7053824      2750.3948      5767.2313      2362.8583    
   1988400   282.63124     -1470.1335      7.2700582      3122.0826      4610.7434      4724.299     
   1988500   297.66217     -1470.8297      7.6566953      2965.055       3281.6894      5424.0457    
   1988600   268.9508      -1470.0267      6.9181592      3072.011       3479.8178      5837.5541    
   1988700   282.17749     -1470.4411      7.2583863      2000.1891      2555.2242      3513.0248    
   1988800   310.42507     -1469.7711      7.9849923      2678.7278      5141.1666      2802.3643    
   1988900   306.02629     -1469.9871      7.8718436      3513.5468      6269.8161      4132.1509    
   1989000   280.49958     -1471.4421      7.2152258      3116.0516      4438.1377      5110.6337    
   1989100   270.95422     -1470.8269      6.9696928      2593.3516      4395.6194      3318.2658    
   1989200   278.3098      -1470.6127      7.1588987      2123.1019      2349.4362      4027.6876    
   1989300   288.63542     -1470.2855      7.4245022      3022.5704      4096.9126      4977.9058    
   1989400   304.99422     -1470.8776      7.8452958      2812.8556      4437.3533      3927.1303    
   1989500   325.70081     -1470.6152      8.3779266      3250.0925      5804.523       3818.734     
   1989600   309.09168     -1469.8716      7.9506939      3248.8826      4519.5513      5218.9657    
   1989700   275.63182     -1469.5534      7.0900136      1627.1503      2890.8874      2286.0074    
   1989800   282.70238     -1469.8156      7.2718879      3331.8556      4858.6901      5107.8714    
   1989900   294.11222     -1469.4608      7.5653806      3770.9134      4915.9626      6430.1295    
   1990000   301.43738     -1469.3209      7.7538041      2920.813       4156.9119      4688.9757    
   1990100   338.13893     -1470.7608      8.6978697      3494.7582      4382.2607      5906.6304    
   1990200   282.72822     -1470.5414      7.2725526      2884.7549      2135.7779      6537.0955    
   1990300   277.18551     -1469.4489      7.1299789      2295.5284      3821.7355      3230.2308    
   1990400   304.62052     -1470.0645      7.8356831      2589.9582      2930.1574      4776.0013    
   1990500   293.72376     -1470.2698      7.5553884      1853.2084      4235.3795      1394.2524    
   1990600   285.2144      -1469.9883      7.3365042      1871.0732      6542.6637     -939.64483    
   1990700   284.60024     -1470.1761      7.3207062      2865.6283      5905.7161      2578.5463    
   1990800   313.62317     -1470.6408      8.0672564      2942.4001      4169.1793      4703.4618    
   1990900   286.39839     -1469.3413      7.3669596      2756.2919      3314.7424      5187.5416    
   1991000   315.81766     -1469.5455      8.1237047      1869.4859      1645.3664      4026.3969    
   1991100   334.55183     -1469.5022      8.6055993      2215.5934      1703.723       4831.0826    
   1991200   310.46807     -1470.4356      7.9860983      2497.9796      4037.981       3539.267     
   1991300   292.08978     -1470.4887      7.5133579      2712.8232      4109.7475      3975.0665    
   1991400   325.72677     -1470.7196      8.3785945      2889.4524      4938.7397      3754.3047    
   1991500   289.87737     -1469.8752      7.4564487      3498.0809      4586.1664      5916.186     
   1991600   298.00863     -1470.4567      7.6656072      3616.0584      6221.6247      4454.7498    
   1991700   298.71166     -1470.7958      7.6836911      3553.6892      4766.3422      5748.8053    
   1991800   283.52126     -1470.624       7.2929518      2286.6609      2455.9771      4397.2566    
   1991900   291.06036     -1470.2314      7.4868784      2136.165       1607.3763      4780.5017    
   1992000   278.8052      -1470.1731      7.1716416      2289.559       3946.0488      2983.1694    
   1992100   279.6846      -1470.7532      7.1942624      3026.4085      5399.3979      3806.7722    
   1992200   267.26446     -1470.9292      6.8747818      3008.0744      5847.1359      3117.4092    
   1992300   303.42249     -1470.0922      7.8048665      3185.2403      3709.4174      5812.5107    
   1992400   312.62652     -1470.6987      8.0416197      3915.597       4882.2066      6643.2199    
   1992500   279.53986     -1469.8518      7.1905392      3264.7414      5647.867       4149.4302    
   1992600   272.4932      -1470.3518      7.0092796      2664.4079      3242.8067      4873.4438    
   1992700   318.33814     -1470.1042      8.1885384      2456.0265      2539.1996      4851.7438    
   1992800   320.73723     -1470.075       8.2502495      3690.3353      5186.6769      5792.2127    
   1992900   289.38745     -1470.2245      7.4438466      3080.6561      4605.6601      4723.3567    
   1993000   276.26273     -1470.1958      7.1062425      2649.6951      4293.1258      3688.0543    
   1993100   280.84486     -1470.4211      7.2241075      2865.9742      4441.5046      4155.7624    
   1993200   312.34996     -1470.511       8.0345059      3272.3178      4670.695       4877.5931    
   1993300   308.21249     -1470.2677      7.9280787      3398.7665      5533.6706      4601.6321    
   1993400   328.02361     -1469.2815      8.4376756      3217.4191      4996.2926      4625.7554    
   1993500   322.52297     -1470.4909      8.2961837      3964.465       6222.3721      5567.9495    
   1993600   274.28374     -1470.1392      7.0553373      3316.8401      5449.4775      4687.2719    
   1993700   292.17178     -1470.5428      7.5154672      3632.393       6389.9496      4623.3657    
   1993800   283.10694     -1470.07        7.2822944      3596.2795      4497.1009      6271.5188    
   1993900   288.74302     -1470.4638      7.42727        2815.2679      4768.5535      3744.8277    
   1994000   306.35932     -1469.5203      7.8804099      3233.6541      4055.4024      5605.9863    
   1994100   300.58603     -1470.4851      7.731905       2305.1401      2310.082       4445.5215    
   1994200   315.16872     -1470.5481      8.1070122      1750.9008     -17.834131      5274.5117    
   1994300   298.03555     -1469.6731      7.6662995      2835.6657      2722.3821      5687.1413    
   1994400   288.74816     -1469.5373      7.4274021      2122.2529      3734.8908      2785.5234    
   1994500   329.95037     -1470.0815      8.4872372      2180.1866      4514.1889      1816.7044    
   1994600   299.2324      -1469.8506      7.6970859      2601.5052      4725.4851      3125.6435    
   1994700   294.32151     -1470.1339      7.5707642      2909.2331      3979.887       4626.3449    
   1994800   277.58226     -1469.8688      7.1401844      2517.5514      2627.1575      4724.4184    
   1994900   289.64459     -1469.8908      7.4504608      2022.315       3745.5752      2290.7217    
   1995000   330.01794     -1469.354       8.4889751      2174.731       3330.5276      3283.7214    
   1995100   322.03062     -1470.3396      8.2835192      1341.4594      720.01049      3385.4218    
   1995200   328.96347     -1470.0312      8.4618514      1985.3979      2698.8317      3097.3611    
   1995300   283.23594     -1469.6457      7.2856125      2259.4876      3589.8699      3252.9402    
   1995400   281.72859     -1470.0819      7.2468395      2011.1436      2388.127       3907.9144    
   1995500   309.87967     -1470.3836      7.9709631      2693.0942      3880.0682      4318.3964    
   1995600   287.32322     -1470.9106      7.3907488      1586.4171      1055.0227      3756.3782    
   1995700   282.8792      -1470.5349      7.2764362      1280.3316     -53.440023      4036.9029    
   1995800   308.63782     -1470.7476      7.9390194      3140.1409      4120.8097      4934.5887    
   1995900   285.97108     -1469.9787      7.3559679      1925.7718      2800.7832      2876.4327    
   1996000   295.80599     -1469.2232      7.6089491      1597.2411      1566.1283      3301.5053    
   1996100   297.66615     -1469.9147      7.6567976      2624.9195      3926.0336      4108.0364    
   1996200   294.92271     -1470.2469      7.5862287      2972.5427      4942.4934      3814.0059    
   1996300   279.15166     -1470.7408      7.1805537      3110.3043      3983.7761      5373.7705    
   1996400   241.36727     -1470.1064      6.2086345      3206.9493      3522.0686      6131.3032    
   1996500   284.03922     -1470.8715      7.3062753      3294.3398      4131.4183      5628.3947    
   1996600   271.73186     -1470.5529      6.9896958      3146.1903      4600.057       4925.9613    
   1996700   275.4193      -1470.3429      7.084547       2782.0152      4603.1951      3785.0127    
   1996800   306.37629     -1469.9501      7.8808464      2555.4628      3851.3752      3753.2654    
   1996900   305.73418     -1469.9659      7.8643296      2613.9495      4489.6957      3527.9213    
   1997000   316.69774     -1471.1065      8.1463428      3287.044       4526.9423      5023.8496    
   1997100   331.54612     -1470.045       8.5282842      2211.7587      2360.087       4230.5183    
   1997200   292.78832     -1469.8954      7.5313263      2052.4277      1618.5583      4540.2403    
   1997300   295.00766     -1469.6067      7.5884138      2256.1671      2170.6239      4650.6043    
   1997400   280.29238     -1470.4133      7.2098962      2598.7068      4678.9559      3188.5182    
   1997500   305.505       -1470.2415      7.8584346      2054.2707      2507.0689      3708.0553    
   1997600   282.20863     -1469.8652      7.2591874      1699.2018      797.52372      4537.9135    
   1997700   320.91537     -1469.4949      8.2548318      2350.3671      2953.7764      4194.389     
   1997800   323.29121     -1469.7214      8.315945       2426.7511      3663.8875      3604.1809    
   1997900   310.64157     -1469.6077      7.9905614      1967.0793      4879.7195      1113.8586    
   1998000   276.75964     -1470.0021      7.1190243      1914.2157      4036.6309      1771.194     
   1998100   316.34533     -1471.2012      8.1372777      3181.3302      4536.6373      4891.0703    
   1998200   298.81044     -1471.2519      7.6862318      2622.7177      6095.3463      1826.6144    
   1998300   280.547       -1469.6656      7.2164456      2223.0646      3730.2423      3200.755     
   1998400   278.08104     -1470.0947      7.1530144      2849.8265      4464.2242      4083.9998    
   1998500   286.80316     -1469.9967      7.3773713      3627.2423      5881.138       4856.288     
   1998600   278.87688     -1469.1578      7.1734855      3199.9046      4579.8082      5150.0601    
   1998700   316.8992      -1470.2843      8.1515249      2490.0193      2897.5447      4550.8355    
   1998800   294.92341     -1469.71        7.5862467      2567.7573      3415.2794      4324.9019    
   1998900   339.19374     -1469.8026      8.7250022      2929.8433      3716.7796      5011.7907    
   1999000   329.64622     -1469.1651      8.4794136      3346.005       4960.0833      4986.329     
   1999100   286.49662     -1469.3342      7.3694863      3618.8616      5759.6556      5268.4893    
   1999200   293.40211     -1470.3081      7.5471147      3091.9795      6829.9803      2322.9911    
   1999300   282.62148     -1470.5604      7.2698071      3218.9929      5233.9671      4523.2407    
   1999400   308.54322     -1471.1024      7.936586       2524.1412      4391.5118      3001.2265    
   1999500   313.36652     -1470.8145      8.0606546      2279.3834      780.67087      5888.6319    
   1999600   288.21297     -1470.53        7.4136356      3302.988       4110.0111      5661.6606    
   1999700   322.64005     -1469.8759      8.2991954      2875.5089      5065.7922      3527.6005    
   1999800   319.96679     -1469.1132      8.2304317      2867.3944      3506.789       5080.5541    
   1999900   337.56412     -1470.1465      8.6830839      3376.4373      5727.3427      4254.8       
   2000000   302.14877     -1469.9095      7.772103       2771.2451      3269.293       5018.2403    
Loop time of 273.617 on 8 procs for 2000000 steps with 200 atoms

Performance: 1263.078 ns/day, 0.019 hours/ns, 7309.479 timesteps/s, 1.462 Matom-step/s
99.9% CPU use with 8 MPI tasks x no OpenMP threads

MPI task timing breakdown:
Section |  min time  |  avg time  |  max time  |%varavg| %total
---------------------------------------------------------------
Pair    | 107.46     | 119.51     | 133.44     | 100.6 | 43.68
Neigh   | 0.075822   | 0.079073   | 0.081825   |   0.7 |  0.03
Comm    | 102.42     | 105.14     | 108.11     |  18.7 | 38.42
Output  | 0.6824     | 0.73117    | 0.91924    |   8.4 |  0.27
Modify  | 27.723     | 39.886     | 52.063     | 190.4 | 14.58
Other   |            | 8.275      |            |       |  3.02

Nlocal:             25 ave          42 max           9 min
Histogram: 1 1 0 1 1 1 0 2 0 1
Nghost:            120 ave         136 max         103 min
Histogram: 1 0 2 0 1 1 1 0 1 1
Neighs:              0 ave           0 max           0 min
Histogram: 8 0 0 0 0 0 0 0 0 0
FullNghs:          450 ave         756 max         162 min
Histogram: 1 1 0 1 1 1 0 2 0 1

Total # of neighbors = 3600
Ave neighs/atom = 18
Neighbor list builds = 2938
Dangerous builds = 0
write_restart Restart.final
System init for write_restart ...
Total wall time: 0:04:33
