LAMMPS (4 Jan 2019)
# 3D copper block simulation
boundary     p p p
units        metal
atom_style   atomic

# geometry
read_data	 data.pos
  triclinic box = (0 0 -10) to (25.22 21.8412 10) with tilt (12.61 0 0)
  2 by 2 by 2 MPI processor grid
  reading atoms ...
  200 atoms

mass		*   12.0107

# EAM potential
pair_style   tersoff
pair_coeff   * * SiC.tersoff C
neighbor     2. nsq
neigh_modify every 1 delay 0 check yes

#Langevin random seed
variable     dt equal 2e-3
variable     r  equal 57085
variable     T  equal 300
variable     dT equal "v_dt * 100"

timestep ${dt}
timestep 0.002

# initialize
velocity     all create $T 28459 rot yes dist gaussian mom yes
velocity     all create 300 28459 rot yes dist gaussian mom yes
reset_timestep 0

# fixes
fix          1 all langevin $T $T ${dT} 73504 zero yes
fix          1 all langevin 300 $T ${dT} 73504 zero yes
fix          1 all langevin 300 300 ${dT} 73504 zero yes
fix          1 all langevin 300 300 0.2 73504 zero yes
fix          2 all nve
fix          3 all phonon 10 50000 1000000 map.in Graphene nasr 50

# output
#                    1    2    3  4  5     6   7
thermo_style custom step temp pe ke press pxx pyy
thermo       100

restart      1000000 restart.one restart.two

dump   1 all xyz 50000 dump.graphene.xyz

# execution
run 	 2000000
Neighbor list info ...
  update every 1 steps, delay 0 steps, check yes
  max neighbors/atom: 2000, page size: 100000
  master list distance cutoff = 4.1
  ghost atom cutoff = 4.1
  1 neighbor lists, perpetual/occasional/extra = 1 0 0
  (1) pair tersoff, perpetual
      attributes: full, newton on
      pair build: full/nsq
      stencil: none
      bin: none
Per MPI rank memory allocation (min/avg/max) = 3.799 | 3.99 | 4.188 Mbytes
Step Temp PotEng KinEng Press Pxx Pyy 
       0          300   -1478.5197    7.7168307    4437.9206    6311.3318    6292.9984 
     100    254.35705   -1471.4001    6.5427677    3319.3057    5598.1973    4414.0633 
     200    306.53414    -1470.799    7.8849068    2348.5517    3664.2322    3478.1834 
     300    287.39411   -1469.4751    7.3925722    2475.5039    4568.1905    2982.5937 
     400    275.67276   -1469.8464    7.0910668    2662.7015    5192.4747    2937.4731 
     500    313.44652   -1470.1473    8.0627123    3084.1119    5079.4781     4054.371 
     600    291.16117   -1470.0136    7.4894715    3545.2852    5137.4617    5533.5753 
     700    274.30988   -1469.9783    7.0560096    3195.7721    6427.6279    3194.5164 
     800    307.13899   -1470.0675    7.9004652    3236.7273    4527.3152    5113.9374 
     900     309.1686   -1470.4788    7.9526725     2779.044    2812.8591    5468.3591 
    1000    322.51691   -1469.9881    8.2960278    2941.5681    4181.7947    4699.8924 
    1100    315.24445   -1470.4069    8.1089602    3082.5998    4682.2688    4544.4956 
    1200    319.74786   -1470.5536    8.2248003    3484.7739    4707.9117    5644.2408 
    1300    339.12639   -1469.3695    8.7232699    2778.7653    3674.3193    4652.4665 
    1400    292.67093   -1469.0757    7.5283068    1823.7876    2457.0699    3064.1006 
    1500    334.01522   -1469.0251    8.5917963    2804.2755    4112.7521    4317.1045 
    1600    311.54875   -1470.3589    8.0138964     3024.692    4115.3706    4809.1068 
    1700    271.05153   -1469.7467    6.9721959    1989.4752     2522.056    3627.2874 
    1800    290.47194    -1469.672    7.4717425    2565.0416    4743.9865    2898.1574 
    1900    300.51509   -1469.1707    7.7300803    2933.4281    4634.7994    4198.8794 
    2000    334.51301   -1469.2312    8.6046008    2909.5167    3434.6465    5323.5629 
    2100    311.33436    -1470.104    8.0083819    2580.4786    4144.4708    3612.3036 
    2200    279.84459   -1468.9837    7.1983776    2447.3335    5720.3794    1831.8172 
    2300    289.52755   -1469.8796    7.4474502    2279.3869     4680.112    2367.4077 
    2400    308.31422   -1470.8332    7.9306953    2738.5657    2740.0668    5410.2619 
    2500    307.32105   -1470.1968    7.9051482    2181.7849    3007.8802    3631.0714 
    2600    278.94968   -1470.8756    7.1753583    3463.5661    4842.9486    5361.5078 
    2700    301.28656   -1469.8458    7.7499245    1948.0486    1388.3281    4605.7932 
    2800    282.08968     -1469.34    7.2561277    787.01163   -1252.8107    3759.5252 
    2900    301.42121   -1470.1273    7.7533882    2482.2675    3277.0079    4200.3931 
    3000    284.69998   -1469.9925    7.3232717    3176.5001    6042.5321    3652.7507 
    3100    292.10236   -1470.5507    7.5136816    2464.2304    2642.0288    4719.1079 
    3200    302.60413   -1469.7384    7.7838161    2479.7774    3516.0838    3924.0812 
    3300    308.40491   -1469.5154    7.9330283    2966.5174    4432.8057    4558.6542 
    3400     318.7136   -1469.8583    8.1981962    2582.6017    3398.8709    4424.9656 
    3500    295.82915   -1470.6996    7.6095449    2892.6872    4361.5246    4357.8502 
    3600    297.54531   -1470.5891    7.6536891    2270.7406    1850.8336    4891.3021 
    3700    315.90494    -1469.857    8.1259498    2385.1481    1955.4921    5138.1353 
    3800     280.4955   -1469.9181    7.2151209    2321.9091    1572.0404    5343.0878 
    3900    315.16043   -1470.8657    8.1067989    2514.0198    2571.9486    4903.4399 
    4000    339.70122   -1470.3826    8.7380559    2160.5193    2366.9107    3757.1133 
    4100    315.01613   -1469.9236    8.1030871    1929.5106    2945.9915     2829.833 
    4200    269.18771   -1469.4168    6.9242531     2154.133    3804.2012    2721.6714 
    4300    307.96636   -1470.0327    7.9217474    3168.4017    3542.0722    5830.7854 
    4400    304.59759     -1470.05    7.8350934    2915.6616    4865.6171    3981.2593 
    4500    298.88687   -1471.5202    7.6881978    2845.3649    5393.8071     2981.338 
    4600    291.52811   -1471.0146    7.4989101    2262.6059    3682.4262    2997.8105 
    4700    310.00885   -1470.0144    7.9742861    2770.4364    4694.0652    3537.6729 
    4800    298.22524    -1469.666    7.6711789    2357.6433      4378.76    2756.8845 
    4900    277.12968   -1470.3736    7.1285427    1810.1264    1373.6673    4200.8163 
    5000    278.94445   -1470.2779    7.1752236    2602.2588     2687.485    5201.3222 
    5100    301.68893   -1469.1174    7.7602746    2432.8261    2647.9386    4798.6672 
    5200    313.64054   -1468.9183     8.067703    2063.9382    1472.9049    4738.5551 
    5300    317.95371    -1469.558    8.1786499    2219.8518    2739.9311    3800.3438 
    5400    322.15143   -1470.1673    8.2866268    2006.1254    5231.8923    776.73907 
    5500    305.75983   -1469.0568    7.8649894    2492.9165    4185.2604    3229.3573 
    5600     284.5198   -1469.6204     7.318637    1169.9919    584.15001    2989.2778 
    5700    272.72642   -1470.4069    7.0152787    1828.0732    1561.3927    3961.0811 
    5800      254.369    -1470.436    6.5430751    2307.6379    3856.0893    3273.8028 
    5900    288.98297   -1470.6031     7.433442      2017.59    3751.6318    2527.4936 
    6000    311.60781   -1470.4662    8.0154158    2027.4368    4473.1087    1590.8775 
    6100    276.92917    -1470.306     7.123385    2288.8889    4920.4745    2104.2274 
    6200    295.47611     -1469.77    7.6004637    2748.2844    3405.2518    4952.6742 
    6300    295.41549   -1470.1798    7.5989043    2807.6466    4777.7939    3557.3813 
    6400    293.95499   -1470.0112    7.5613363    3049.5053    4957.8091    4080.7201 
    6500     290.3775   -1470.6725    7.4693133    3174.2607    4611.6469    4938.3213 
    6600    305.21422   -1469.9758    7.8509548    2631.7665    4558.2341     3256.853 
    6700    291.64779   -1470.1624    7.5019888    1672.1484    4208.6313    882.30895 
    6800    273.16302   -1470.2255    7.0265091    2028.2609    5088.5422     1046.328 
    6900    300.24315   -1470.3417    7.7230853    3249.7389    5277.4395    4333.3927 
    7000    324.72671   -1469.7445    8.3528702     2837.615    2794.1098    5722.0588 
    7100    312.97444   -1470.3595    8.0505691    3183.3191    4660.1488    4907.8933 
    7200    324.20854   -1470.3674    8.3395413    3379.9103    5280.2273    4835.8654 
    7300     305.7274   -1470.4521    7.8641553    2955.7704    5286.4251     3521.366 
    7400     318.8476   -1470.1903    8.2016432    3283.5598    4639.2606    5032.9089 
    7500    295.03405   -1470.9479    7.5890927    2505.9109    2388.4397    5151.4404 
    7600    298.81264   -1470.5955    7.6862886    1723.8814    1810.8027    3301.9184 
    7700    294.14071   -1470.7948    7.5661135    962.26037    2424.3885    600.88651 
    7800    301.95231   -1470.1283    7.7670495     2081.478    3479.4551    2764.9672 
    7900    301.96422   -1470.0603    7.7673558    2772.8101    6385.0394    2010.0992 
    8000    308.01103   -1471.2689    7.9228965    2897.8559    5403.5574    3181.1032 
    8100    293.29466    -1470.359    7.5443506    2092.7879    1517.4026    4744.9233 
    8200    288.95223   -1469.6773    7.4326513    2061.0663    2367.2127    3958.2448 
    8300    306.42907   -1470.4028    7.8822042    3165.5209    3956.0414    5508.8695 
    8400    313.09973   -1469.6378    8.0537921    3814.8554    5288.2618    6056.3999 
    8500    313.44226   -1469.7467    8.0626029    3060.7697    3781.6711    5351.5194 
    8600    291.63891   -1469.8999    7.5017602    2450.1355    3738.0415    3704.0492 
    8700    277.24507   -1469.9082    7.1315107    3256.3637    5379.3628    4300.3482 
    8800    280.28424   -1469.4327    7.2096866    2840.7967    3490.2631    5289.1407 
    8900    286.14162   -1470.6821    7.3603547    3222.3093    6493.3566    3120.9257 
    9000    294.30828   -1470.3406    7.5704238    2203.6506    4430.7892    2157.7933 
    9100       319.06   -1470.6825    8.2071067    2771.0816    3550.2901    4724.9132 
    9200    325.51662   -1470.1113    8.3731888     2408.023    4750.1702    2256.8098 
    9300    292.98592   -1470.1579    7.5364092    2411.4857    5341.8947    1939.9238 
    9400    321.98181   -1469.6668    8.2822637    3224.6521    4958.8885     4617.935 
    9500    301.54148   -1469.9268    7.7564817     3404.948    5014.8597    5077.7303 
    9600    298.50803   -1470.4006     7.678453    3048.4069    5334.0088    3740.8073 
    9700    296.09199   -1469.9732    7.6163058    3078.3159    3882.0487    5512.1174 
    9800     270.6454   -1470.0751     6.961749    1775.4825   -76.888621    5424.3908 
    9900    303.54333   -1470.8678     7.807975    1879.0759    3767.9103    1744.2256 
   10000    299.49012   -1470.9976    7.7037151    2579.9537    4709.0118    3007.1879 
   10100     336.9516   -1470.0699    8.6673281    2515.9359    2824.9784    4559.6115 
   10200    327.43987    -1470.286    8.4226601    2611.2238    3449.1216    4349.4988 
   10300    325.62492   -1470.5212    8.3759745    2783.5707    4477.8335    3877.4604 
   10400    286.42052    -1470.043    7.3675289    3089.7925    6605.8275    2736.3509 
   10500    306.49808   -1470.0006    7.8839793    2983.9579     5120.455     3721.908 
   10600    302.39485   -1469.9887    7.7784329    2584.4528    2242.5057    5546.2816 
   10700    286.95555   -1470.3258    7.3812913     2693.244    2074.5608    5895.4954 
   10800    310.17725   -1470.2038    7.9786177    2238.5003    2896.8237    3830.9276 
   10900    315.15116   -1469.7457    8.1065604    2496.2199    5591.1312    1793.2513 
   11000    352.93879    -1470.123    9.0785628    2650.4522    3247.0378    4557.1711 
   11100    294.22876   -1469.6821    7.5683784    3343.5877    4897.7642    5065.2423 
   11200    290.55348   -1469.6075      7.47384    1674.9733     1632.546    3600.0868 
   11300    296.77535   -1470.2902    7.6338836    697.62257    108.40266    2055.7951 
   11400    317.47992   -1470.4544    8.1664627      2017.81    4578.2593    1347.4192 
   11500    275.73864   -1469.5484    7.0927614    2541.2833    5045.6548    2601.8394 
   11600    302.28074   -1469.2786    7.7754975    1881.0172    1784.5951    4103.9019 
   11700    313.83351   -1470.4821    8.0726667    2465.5396    4022.5425    3364.3624 
   11800    279.92003   -1470.8821    7.2003182    2175.6113    1669.5739    4697.6935 
   11900    301.40022   -1470.4592    7.7528481    2944.0338    3002.0573     5740.141 
   12000    313.66603    -1469.855    8.0683589    3327.5396    5316.6759    4541.8287 
   12100    298.00747   -1470.5376    7.6655773    2340.5177    4878.1093    2111.2624 
   12200     288.6732   -1470.9299    7.4254739    2914.1133    3821.6459    4850.8693 
   12300    294.31745   -1470.6664    7.5706596    3507.5381    5448.4975     5035.499 
   12400     313.6881   -1470.2019    8.0689265    2848.9488    4670.7341     3713.624 
   12500    303.65596   -1469.3455     7.810872    2557.2319    4401.1465    3435.1678 
   12600    334.19766   -1470.4346    8.5964891    3624.8261    6152.7796    4533.8045 
   12700    297.40862   -1470.4846    7.6501732    1635.1835    4832.6394   -114.53363 
   12800    278.37922   -1469.9398    7.1606843    1883.6373    3536.9622    2140.7479 
   12900     269.4928   -1470.3916    6.9321011    2175.7715    3935.1989    2703.0116 
   13000    295.43995   -1470.6066    7.5995335    2507.2255    6154.3572    1338.8395 
   13100    312.35292   -1469.0439     8.034582    2401.3024    4727.4307    2432.5731 
   13200    300.33573   -1469.8692    7.7254666    2917.8314    3259.6143     5296.358 
   13300    270.60101   -1469.8375    6.9606072    2871.4394    3909.6745     4701.483 
   13400    329.48753   -1469.3003    8.4753316    3328.9513    5212.3578    4886.1119 
   13500    311.30522   -1470.1258    8.0076323    3243.4085    5953.6034    3651.4002 
   13600    301.08044   -1469.5212    7.7446225    1498.2002     224.9985    4257.0752 
   13700    305.77782   -1470.0794    7.8654522     2246.836    1059.1961    5668.4091 
   13800    312.05343   -1469.1121    8.0268781    2713.7311    4039.7888    4162.5731 
   13900    263.56773   -1470.1805    6.7796919    2050.5694    3732.8966    2593.3686 
   14000    289.63592   -1471.2354    7.4502379    3088.5618    4452.6372    4686.1795 
   14100    315.13511   -1470.5482    8.1061477    2567.4721    3898.5097    3905.5419 
   14200     285.6891   -1469.7689    7.3487146    2502.3804    4275.6434     3334.283 
   14300    296.95776   -1469.8296    7.6385758    3123.6463     2755.295    6698.3587 
   14400    306.31626   -1470.3862    7.8793023    2127.9493     1221.138    5213.4729 
   14500    310.09286   -1470.3172     7.976447    2054.2626    1908.9534    4329.4375 
   14600    330.62607   -1470.5095    8.5046179    2511.0067    3298.5103      4150.98 
   14700    275.34016   -1469.7369    7.0825112      1923.22    3306.5348    2509.5516 
   14800     275.2313   -1470.1208    7.0797111     1927.781    3757.2079    2238.2399 
   14900    268.95268   -1469.3098    6.9182075    2322.5406    4910.5512    2142.5751 
   15000    326.02398   -1469.8692    8.3862396     3706.252    5980.4922    4839.1857 
   15100    308.83319   -1469.4871    7.9440447    3266.5748    2840.7707    7132.4188 
   15200    333.06434   -1470.0115     8.567337    2454.3164    3431.0398    3758.4585 
   15300    311.17166   -1469.7748    8.0041966    2842.6574    4759.9961    3705.6288 
   15400    329.78454   -1470.0501    8.4829716    3411.8902    4902.6139    5233.7091 
   15500    274.26223    -1469.963    7.0547838    2821.1601    3796.8585    4763.5988 
   15600    305.16109   -1470.6053    7.8495882    3332.0473    4639.1625    5277.8987 
   15700    301.11311   -1470.3111    7.7454628    2767.5241    3490.5079    4723.4887 
   15800      299.377   -1470.3629    7.7008054    1542.0835    996.48302    3738.5882 
   15900    323.72967   -1471.0056    8.3272235    2472.0934    3567.9474    3551.0253 
   16000    306.17237    -1469.533    7.8756011    2473.3769    3681.2115    3832.6328 
   16100    261.00578   -1470.8455    6.7137913    2241.9548    1960.7753    4803.0884 
   16200    318.29231   -1471.0492    8.1873594    2760.2628    2581.7654    5534.5708 
   16300    312.88332   -1470.9635    8.0482252    3663.7125    4742.3278    6084.1713 
   16400    280.48659   -1469.9202    7.2148917    3167.5369    6072.1662    3476.7129 
   16500    305.99994    -1470.168    7.8711658    2421.1431    4840.8576    2506.0053 
   16600    308.86918   -1469.8002    7.9449706    3012.4042    4717.5718    4378.0313 
   16700    293.31101   -1470.4957    7.5447714     3509.412     3938.115    6468.0141 
   16800    300.52213   -1468.9691    7.7302613    2644.3208     2996.485    5011.4673 
   16900    316.28895   -1470.2673    8.1358276    2271.5332    1973.5464    4756.7385 
   17000    306.27506   -1470.5047    7.8782426    1675.8116    42.837101    4928.0895 
   17100    286.59323   -1471.1603    7.3719714    2274.9892     2435.078     4355.985 
   17200    292.59705    -1469.824    7.5264064    2211.7499    2022.1527    4762.9948 
   17300    298.55621   -1470.5464    7.6796924    1900.5624    690.89399    5100.9893 
   17400    313.20392   -1469.7897    8.0564721    2356.5748    2295.6373    4972.1237 
   17500    289.36329   -1470.4684    7.4432249    3233.4821    4803.5614    4761.1566 
   17600    321.75342   -1470.2146    8.2763888    3219.8344    5054.2916    4602.8133 
   17700    288.55337   -1469.5541    7.4223917     2180.487    1716.4813    4899.6851 
   17800    301.11466    -1470.046    7.7455027    1918.1494    1790.9272    3962.6388 
   17900    294.61434   -1470.3186    7.5782967    2920.1831    4042.7913    4761.7007 
   18000    293.36338   -1470.2589    7.5461185    3415.1572    5063.5218    5208.5589 
   18100    274.86454   -1470.3645     7.070277    2183.5472    3694.8233    3000.4146 
   18200      308.265   -1470.2369    7.9294292    2176.6511    4118.9268    2409.5502 
   18300    307.81045   -1470.3783     7.917737    2866.1248    4183.4431    4415.5511 
   18400    295.12924   -1470.5966    7.5915413    2554.2564    4025.0795     3675.034 
   18500    303.52345   -1469.8252    7.8074634     2255.698    4857.0398    1890.4649 
   18600    291.69159   -1470.5707    7.5031153    1904.9627    745.44073    4702.0856 
   18700    272.56043   -1470.0425     7.011009    3070.0956    3650.6638      5461.44 
   18800    293.36308   -1470.6518    7.5461107     2862.099    3572.2288    4984.1775 
   18900    298.08466   -1470.7966    7.6675628    2385.0239    3582.4922    3500.4987 
   19000    281.73565   -1470.5129     7.247021    1908.7385    994.46632    4908.6248 
   19100    287.32421   -1471.1602    7.3907742    2559.3499     2313.359    5149.5772 
   19200    274.90818   -1469.6656    7.0713996    2461.0773      1678.62    5861.7853 
   19300     279.0298   -1470.4361    7.1774191    3030.9261     4587.841    4533.4552 
   19400    288.22898   -1470.3667    7.4140474    3359.7617    4917.2085    5210.8595 
   19500    320.31319   -1470.0288    8.2393422    2385.3236    2235.1855    4990.6124 
   19600    299.03039   -1470.0467    7.6918895    3542.6741     4875.827    5671.5127 
   19700    332.53524   -1470.4139     8.553727    3307.3316    4411.7016    5528.3423 
   19800     341.6401   -1470.5931    8.7879293    3438.0344    4251.0209    5821.0663 
   19900    320.65308   -1469.8182     8.248085    3303.1813    4939.2388    4933.4476 
   20000    321.97164   -1470.4571    8.2820021    2678.8967    3757.6671    4298.7166 
   20100    324.17842   -1470.1259    8.3387665    2593.7783    2883.6133    4771.3804 
   20200    319.16532   -1471.0744    8.2098156    2401.5816    2113.0478    5084.3179 
   20300    250.86866   -1470.1472    6.4530364    1772.7735    1269.5078    4248.1237 
   20400    289.06732   -1470.2603    7.4356117    3531.4259    4971.7417    5605.8444 
   20500    302.65103   -1470.4033    7.7850225    3612.0215    6384.2929    4269.6931 
   20600    298.28973   -1470.0542    7.6728379    3330.3564    6124.6647    3794.3159 
   20700    303.70695   -1470.2063    7.8121838      2450.69    4201.1929    3172.8673 
   20800    289.06187     -1470.01    7.4354717    1887.6761    3543.3235    2120.9206 
   20900    282.39947   -1470.0912    7.2640963    2490.6717     4076.094    3399.7473 
   21000    283.38417   -1470.1638    7.2894255    2661.2591    3955.8984    4114.3926 
   21100    288.84051   -1470.6576    7.4297776    3368.5917    4588.4665    5464.9466 
   21200    273.71231   -1470.5314    7.0406385    2323.5517    2467.1752     4479.246 
   21300    318.33406   -1469.9314    8.1884334    1999.5082    2239.2538    3774.9348 
   21400    313.66968   -1470.0458    8.0684527    3225.9551     3858.929    5774.7188 
   21500    314.11898   -1470.4076    8.0800099    3219.7807    6111.7249    3526.0084 
   21600    310.68826   -1471.0448    7.9917622    3750.4197    6278.6801    4657.4562 
   21700    315.11913   -1469.8943    8.1057365    3331.4728    5702.0919    4280.1957 
   21800    300.49554   -1470.3123    7.7295773    2734.7685    5384.3758    2824.5117 
   21900    298.33661   -1469.7653    7.6740436     1806.713    5871.1318   -466.03907 
   22000    311.15079   -1469.4086    8.0036599    2179.7738    4167.2458    2333.0219 
   22100    321.83909   -1469.9395    8.2785926    3236.8026    4257.1551    5213.6641 
   22200    314.68881   -1469.9841    8.0946674    2885.8552    4475.8307    4186.2393 
   22300    299.12616   -1469.8556    7.6943532    2761.6642    5668.7945    2788.6672 
   22400    292.01795   -1469.7693    7.5115103     3153.754    5514.8604    3854.9891 
   22500    314.01628   -1471.2287    8.0773681    2897.9028     3450.681      5134.36 
   22600    307.24912    -1470.497     7.903298    2680.3052      3994.78    3795.9963 
   22700    306.11097    -1469.939    7.8740216    2684.2949    4155.2603    3821.0478 
   22800    317.33812   -1469.6176     8.162815    2690.6444    2720.2253    5146.6907 
   22900    289.08742   -1469.8376     7.436129    3100.6477     4732.742    4497.3484 
   23000    305.91132   -1468.9168    7.8688861    3143.1906    3887.4144    5491.0233 
   23100    288.36319   -1469.6664    7.4174997    3120.9777    3391.5345    6089.7733 
   23200    297.57939   -1469.6979    7.6545659     3161.149    4439.5379    5052.2478 
   23300     279.4488   -1470.6165     7.188197    3111.9593    4215.3928    5223.7844 
   23400    299.78575   -1470.1612    7.7113196     2753.192    3601.7058    4567.3421 
   23500    277.48597   -1470.0297    7.1377074    2160.2048    4563.4642     2020.719 
   23600    290.43486   -1470.4401    7.4707887    2088.3577    2632.0828    3592.1424 
   23700     329.4025   -1470.0626    8.4731443    2511.3625    4161.1823    3285.1966 
   23800    307.21467   -1470.4458    7.9024118    2894.3088    4235.2027    4454.1654 
   23900    312.03706   -1469.6795    8.0264571    3057.1828    3811.9968    5287.7182 
   24000    320.31223   -1470.0363    8.2393174    3400.3787    2792.8122    7320.0825 
   24100    290.60415   -1469.7907    7.4751435    2446.8752    2668.9924    4718.1667 
   24200    295.01051   -1469.9475    7.5884872    2623.8618    3237.8076     4743.357 
   24300    269.25849   -1470.1499     6.926074    2629.6093     3857.769     4137.048 
   24400    279.46113   -1470.0745    7.1885142    2112.2142     2004.481    4282.2014 
   24500    308.89093   -1470.0489    7.9455299    2127.2478    1035.2304    5347.2927 
   24600    322.82544   -1469.9476    8.3039641     2901.647    3612.6392    4980.8894 
   24700    320.66634   -1470.2669     8.248426     2444.379    4431.0235    2874.8802 
   24800    291.69654   -1469.6756    7.5032428    3003.1723    4428.9032    4581.3181 
   24900    307.10604   -1470.0333    7.8996176    2810.1274    4176.3353    4459.3332 
   25000    294.59489   -1470.1753    7.5777963    3774.4854    5904.9585    5257.0832 
   25100     283.2781    -1469.932    7.2866972    2905.3638    4535.8934    4404.4068 
   25200    307.59193   -1470.8458    7.9121161    3302.0589    5020.5931    4819.0802 
   25300    318.28063   -1470.7396     8.187059    2816.4797    3868.5777    4436.5314 
   25400    281.47788    -1470.211    7.2403905    2446.1866    3324.8442    3905.0686 
   25500    284.92004   -1470.6244    7.3289324    2116.9214     4023.738    2363.6774 
   25600    290.53828   -1469.4383    7.4734491    2242.1569    4065.0354    2802.7871 
   25700    253.24886    -1469.567    6.5142619    2304.5825    3200.4164    3937.9331 
   25800    270.71268    -1470.944    6.9634797    3470.7594    5670.6587    4671.7244 
   25900    285.82544   -1470.7576    7.3522216     2909.602    5400.7866    3230.9243 
   26000    266.56805    -1469.692    6.8568682    2162.3433    3443.1593    3173.9528 
   26100    287.47597   -1469.7401    7.3946779    2652.0214    4945.4261    2927.9249 
   26200    301.28703    -1469.819    7.7499368    2347.3961    4455.6574    2740.2967 
   26300    278.85529   -1469.8282    7.1729303    2377.3714    4240.5278    2991.1116 
   26400    310.49026   -1470.7682    7.9866691    2097.1783    2215.3408    4083.5419 
   26500    297.74403   -1470.5948     7.658801    2987.6328    2978.4402    5891.3595 
   26600    256.73376   -1470.4894     6.603903    2843.2372    5260.0685    3467.9224 
   26700    278.62789    -1470.617    7.1670808    2048.0561    3316.2115    2887.1889 
   26800    280.96406   -1470.3914    7.2271737    1448.6682    386.69021    4099.0433 
   26900    310.10022   -1469.4877    7.9766362    2084.3836    2791.9864    3513.3027 
   27000    300.80293   -1469.2891    7.7374843    3582.6062    5285.0748    5524.2827 
   27100    314.56367   -1470.1798    8.0914485    3164.5755    3575.1076      5711.36 
   27200    259.34617   -1470.2678    6.6711016    2446.2186    5211.8751    2201.3322 
   27300    302.63277   -1470.2548    7.7845528    2996.5161    4767.7237    4244.9319 
   27400    301.47008   -1470.5124    7.7546451    2564.8361    3153.5645    4613.1914 
   27500    303.70439   -1470.2676    7.8121178    2431.0087    2326.7123    4968.6284 
   27600    300.65468   -1470.1963    7.7336709     2832.909    3187.2849    5129.1096 
   27700    310.08024   -1469.7765    7.9761223    2786.6007    4889.6142    3370.5444 
   27800    284.80755   -1469.4623    7.3260387    3056.7683    6769.5732    2426.0437 
   27900    272.90064   -1470.4488      7.01976    2435.9402    4021.5729    3394.9396 
   28000    263.37315    -1470.371    6.7746868    2692.6261    3215.7223    4925.2133 
   28100    304.66215   -1470.3257    7.8367541     3310.821    4499.0651    5408.5377 
   28200    280.54455   -1470.3703    7.2163827    2722.4768    2834.1492    5321.8675 
   28300     301.0535   -1469.8552    7.7439296     2280.556    2198.0236    4673.9422 
   28400    303.19316   -1469.8247    7.7989677    2645.6928    2916.1542    5177.4929 
   28500    319.48269   -1470.7653    8.2179794    3336.0601    4000.2841    5858.6367 
   28600    290.14622   -1470.1781     7.463364    1432.3423    2529.6078    1976.4768 
   28700    277.24139   -1469.8443    7.1314161    2390.5821    5843.3886    1476.0867 
   28800    282.21694   -1470.3366    7.2594011    3339.7078    5140.0078    4878.8311 
   28900     286.6386   -1470.7663    7.3731384    3412.3313    4735.8196    5189.4188 
   29000    287.80562   -1471.0223    7.4031575    3368.4936    5377.7065    4763.5865 
   29100    279.01935     -1470.03    7.1771503    2823.0073      3956.79    4706.8672 
   29200    272.35113   -1470.3903    7.0056251    3205.6988    4754.0084    4952.3339 
   29300    313.68553   -1469.8529    8.0688603    3090.4693    4362.2579    4947.5703 
   29400    317.99456   -1469.6393    8.1797006    3473.1446    5225.6274    5148.7724 
   29500    329.62307   -1469.0285     8.478818     3101.181    6119.2121    3199.2876 
   29600    277.26736   -1469.4935    7.1320843    2809.5368     4835.223      3791.52 
   29700    295.02949   -1470.2345    7.5889754    2903.1311    5204.5727    3561.4777 
   29800    295.77216   -1470.0948    7.6080789    2806.1353    3532.1822    4933.5428 
   29900    315.04736   -1470.2248    8.1038905    1602.3545    669.13912    4120.7815 
   30000    310.64574   -1468.6978    7.9906686     1377.081    274.56154    3946.2228 
   30100    308.40681   -1470.3077    7.9330771    2262.9567    2016.5623    4758.4224 
   30200    321.86107   -1470.5399     8.279158    2382.7502    3086.3838    3981.3779 
   30300    293.39801   -1470.2179    7.5470092    2446.7353    1872.5201    5426.5744 
   30400    298.17067    -1471.033    7.6697753    2238.9969    2428.9438    4297.7363 
   30500    294.33761   -1469.2328    7.5711783    2716.3397    3366.8779    4887.9704 
   30600    325.19741     -1469.41    8.3649778    2569.6559    2633.3291    5060.1408 
   30700    315.64493   -1470.4978    8.1192616    2689.6145    2568.0816    5605.3912 
   30800    298.23508   -1470.7523     7.671432    2446.3154    2354.4136    5059.2862 
   30900    297.54191   -1470.1118    7.6536017    2193.0011    2399.7651    4214.4505 
   31000    300.82499   -1470.4683    7.7380518    2270.1745    2133.5726    4871.0807 
   31100    280.04811   -1470.6286    7.2036127    2140.7124    2575.4008    3795.7086 
   31200    300.29201   -1470.8864     7.724342    2369.1466    4791.6607    2152.5442 
   31300    292.63721   -1469.9501    7.5274393    2506.7695    2861.4986    4792.1037 
   31400     287.0332   -1470.2062    7.3832887    3711.6529    3862.6428    7233.1623 
   31500    283.04093   -1470.0774    7.2805965    3309.8177    4310.4992    5578.7935 
   31600    276.98408   -1469.9633    7.1247976    3387.6375    5705.0665    4503.9027 
   31700    285.76984   -1470.0338    7.3507914    1507.8438    396.70065    4127.7652 
   31800    271.47692   -1469.8045    6.9831382    1343.5206    207.11819    4072.9214 
   31900    276.55438   -1470.7104    7.1137444    2519.9679    3401.2272    4067.7772 
   32000    281.53129   -1470.5884    7.2417642    3452.2653    4266.4897    6101.5068 
   32100    282.54229   -1469.8209    7.2677701    3531.2173    5286.8908    5227.5589 
   32200    306.40218   -1469.8462    7.8815125    2825.3963    5592.0759    2942.4345 
   32300    309.32282   -1470.0252    7.9566393    2576.3745    3400.3818    4195.2696 
   32400    275.72552   -1469.7707    7.0924239    1540.4253   -607.19656     5370.288 
   32500    298.03532   -1469.8795    7.6662938    2406.5243     3008.764    4141.6129 
   32600    297.61945   -1469.9203    7.6555964    2636.9724    4227.3189    3815.3276 
   32700     311.0302   -1470.2138     8.000558     3236.832    5546.5306     3977.672 
   32800    280.27588   -1469.4223    7.2094717    2910.2786    5627.6087    3149.0592 
   32900    270.53979   -1470.2622    6.9590326    2654.0998     3947.817     3917.847 
   33000    293.04326   -1469.7545     7.537884    2803.3381    4005.0204    4595.3214 
   33100    284.89634   -1469.7465    7.3283227    2094.0509    4764.7127    1519.8804 
   33200    294.64208    -1469.066      7.57901    1997.9336    6993.3385   -748.90437 
   33300    341.36499   -1469.5392    8.7808527    3531.3884     7265.291    3233.4828 
   33400    315.68936   -1469.7035    8.1204045    2543.7697    3195.1823    4594.2583 
   33500     312.2819   -1470.2625    8.0327552    2841.6401    4174.8975    4283.6657 
   33600    271.91164   -1469.7986    6.9943202    3176.1065    4592.9185     4866.345 
   33700    270.77731   -1470.6135    6.9651422    3243.9699    4051.0438    5741.0305 
   33800    280.87645   -1470.5294      7.22492    2487.4378    4048.4278    3328.2877 
   33900    271.50839   -1470.5749    6.9839476    2517.4611    2549.1959    5062.9164 
   34000    296.13785   -1470.1128    7.6174855    2514.8304    2609.6972    4945.1751 
   34100    316.81807   -1469.4807     8.149438    2132.0781    4089.1294    2487.1552 
   34200    290.76607   -1470.1704    7.4793084    1534.9676    2683.9144    1943.1933 
   34300    294.44508   -1470.7286    7.5739427    2070.3783    1794.0457    4388.5476 
   34400    258.22619   -1469.0236    6.6422926    1839.8017    981.37239     4742.986 
   34500    274.63701   -1470.2615    7.0644244    2796.3554    2394.2752    6048.1386 
   34600    292.88234   -1469.6357    7.5337447    2481.4077    5521.5368     1930.649 
   34700    290.05737   -1469.6229    7.4610787    1962.7541    3798.6457    2218.0881 
   34800     321.2579   -1469.9814    8.2636428    2738.6177    4898.6573    3081.6688 
   34900    323.37396   -1469.8753    8.3180737    2826.2588    3858.7579    4488.1536 
   35000     320.1144   -1470.4483    8.2342286    3042.0313    5833.7536    3250.3152 
   35100    286.07078   -1470.3257    7.3585327    3253.2775    6026.7351    3759.8396 
   35200     288.3812   -1470.4957     7.417963    2486.6994     3211.187    4242.7957 
   35300    351.36539   -1469.4422    9.0380908    1652.4092    1223.0603    3704.1918 
   35400    303.00852    -1470.401     7.794218     1561.025     1869.581     2777.959 
   35500    316.21556   -1470.6953    8.1339398    2815.9458     6056.966    2260.4063 
   35600    293.77392   -1470.0933    7.5566787    3204.5067    6920.9804    2649.0156 
   35700    273.05464   -1469.4774    7.0237214    2439.2977    4701.9712     3012.195 
   35800    291.44267   -1470.8971    7.4967123    3210.5464    5637.7332    3976.7364 
   35900    286.81216   -1470.3674    7.3776029    2809.2116    5048.3473    3201.2576 
   36000    283.14156   -1470.4815     7.283185     2606.115    6242.9948    1605.1582 
   36100    292.76666   -1469.7092    7.5307691    2441.6158    4919.2005    2625.1272 
   36200    297.51471   -1470.1486     7.652902    2400.4519    5033.9952    2322.7839 
   36300    348.00226   -1470.4457    8.9515818    3063.7962     5490.822    3480.9089 
   36400    281.92089   -1470.6961    7.2517859    2650.2743    4068.9754    3884.8531 
   36500    305.92587    -1470.669    7.8692603    1905.4932    1728.9233    4108.1892 
   36600    325.55866   -1469.6363    8.3742701    2972.0959    3213.6435    5685.7145 
   36700    333.44231   -1469.4148    8.5770594    2605.2113    3297.4686    4605.7195 
   36800     311.5594   -1469.4202    8.0141704    1812.2581    3998.8782    1700.5239 
   36900    298.86181   -1469.5115    7.6875533    2550.9134    4272.4349    3349.9673 
   37000    322.21427   -1470.6083    8.2882431    2184.9344    2611.2874    3948.1392 
   37100    296.94367   -1469.8255    7.6382135    2936.2717    3779.0927     4900.329 
   37200    304.24394   -1470.3247    7.8259967     3199.548    4734.6114    4862.5645 
   37300    317.72941   -1470.7189    8.1728802    2933.2989    4112.4165    4680.5925 
   37400    284.58281   -1470.0177    7.3202579    2937.1263    4319.2965    4576.4622 
   37500    285.63183   -1471.0223    7.3472414    2347.0213    4014.2749    2913.1221 
   37600    305.17908   -1470.9573    7.8500509    2227.8286    2244.4455    4327.8816 
   37700    315.52156   -1470.3118    8.1160881    2519.4461     2204.237    5204.8889 
   37800    319.83825   -1469.6794    8.2271254     3035.794    3243.0876    5818.6069 
   37900    311.64797    -1469.961    8.0164486    2151.1713    2685.0654    3789.1843 
   38000    319.65884   -1469.1986    8.2225105    2251.5485    1220.0472    5327.3057 
   38100    320.25793   -1470.7959    8.2379208    2274.4861    1570.5606    5067.4055 
   38200     332.5292   -1469.8419    8.5535717    1906.4339    2880.0195    2679.3566 
   38300    300.84979   -1470.2775    7.7386895    2911.4341    4705.1106    4014.7671 
   38400    317.55353   -1470.2082    8.1683559    3415.7745    4730.3759    5395.6857 
   38500    304.56724   -1470.2046    7.8343127     3111.307    5524.8592    3898.3448 
   38600    283.33463   -1469.4025    7.2881513    3477.6193    5392.3073    5120.4978 
   38700    302.77501   -1470.4022    7.7882116    2939.8653    4754.3043    4043.6586 
   38800    280.15252    -1470.203    7.2062985    1655.2824    1747.3005       3456.7 
   38900    327.95449   -1470.3979    8.4358975    2701.6768    3602.1659    4594.7953 
   39000     295.8246    -1469.969    7.6094278     2857.723    5875.4491    2810.5306 
   39100    281.64023   -1470.5012    7.2445665    2875.2643    4825.9263    3753.1589 
   39200    309.17659   -1470.5738    7.9528779     2692.312    3178.0799    4812.6631 
   39300    301.43424   -1470.1841    7.7537234    2446.6859    6115.5693    1219.4376 
   39400    316.08089   -1469.9092    8.1304756    1575.6173    4792.1206     158.9104 
   39500    295.98993   -1468.5984    7.6136805    1606.2235    3272.6318    1823.9889 
   39600    311.14384   -1469.6937    8.0034811    2522.7602    4108.2501    3358.7465 
   39700    285.91841   -1470.4764    7.3546132    2754.7379    4063.5915    4022.7196 
   39800    304.88261   -1470.7821     7.842425    2839.1802    2834.2453    5506.1093 
   39900    296.18059   -1469.7098    7.6185849    2554.5319    3230.1967    4460.5527 
   40000    307.66079    -1469.641    7.9138875     2236.292    3375.6807    3265.2674 
   40100    300.66418   -1469.5611    7.7339152    1754.7553    4872.6944    708.21613 
   40200    339.98634   -1469.3814    8.7453901    2569.0906    4224.8782    3491.0306 
   40300    292.82541   -1470.3303    7.5322804    2276.8926    3594.8426    3346.7878 
   40400    319.48764   -1469.8457    8.2181068    3104.6234     5079.328    4277.3365 
   40500     298.6849   -1469.9734    7.6830027    3240.2716    4222.4399    5442.6887 
   40600    287.17638   -1470.0046    7.3869716     3018.668    4273.3626    4915.7174 
   40700    307.67572   -1470.3985    7.9142714     3090.692    4496.5158    4763.1079 
   40800    305.04899   -1470.0464    7.8467046    2820.0151    3634.1736    4796.1271 
   40900    278.69251   -1469.5871    7.1687429    3012.0791    4173.3737    4974.4892 
   41000    287.96365   -1469.7082    7.4072225     1146.147   -1217.7688    4904.1557 
   41100    286.90305    -1470.253    7.3799409    2174.3881    764.16334    5673.0025 
   41200     301.6056   -1471.2388    7.7581312    2667.2123    4438.9151    3450.8446 
   41300    291.35475   -1470.8679    7.4944508    2668.0274     5638.556    2375.1032 
   41400    278.75749    -1470.384    7.1704146    2422.5855    4172.1466    3223.7239 
   41500    280.44016   -1470.1732    7.2136975    2898.4969    5298.7637    3357.6148 
   41600    299.18791   -1470.2541    7.6959415    2954.0317    5061.9571    3937.6899 
   41700    333.33368   -1470.0444    8.5742653    3353.0984    4741.9739    5152.9724 
   41800    289.70724   -1470.2902    7.4520723    2418.3842    3542.4784    3798.7692 
   41900      241.107   -1470.4517    6.2019396    2759.4343    3516.7829    4973.2375 
   42000    298.43122   -1470.8338    7.6764772    2901.4529    4813.9973    3787.3862 
   42100    283.01841   -1469.8952    7.2800171    3402.8547    5476.9374    4890.7192 
   42200    295.96253   -1470.9487    7.6129758    3082.1004    4550.3381    4687.1605 
   42300    273.38532   -1470.2169    7.0322273    2584.7695     3573.507    4249.7645 
   42400     281.6582   -1470.6368    7.2450289    3066.6474    3570.4545     5649.781 
   42500    282.36977   -1470.1693    7.2633323    3180.7943    4781.8186    4574.0909 
   42600    286.21754    -1470.686    7.3623075    2804.9267    4108.4027    4365.2736 
   42700    303.72102    -1470.741    7.8125456    2170.4921    2866.9188    3742.5275 
   42800    285.85583   -1471.0363    7.3530035    1960.5277    3984.2299    1998.0817 
   42900     280.3047   -1470.0905    7.2102129    2764.3677    4314.8272    4161.7642 
   43000     304.0037    -1470.965    7.8198169    3014.4222    2626.1942    6346.2047 
   43100    317.03772   -1470.5058    8.1550879    3066.4848    4260.9895     5033.084 
   43200    328.22979   -1471.3381     8.442979    3281.3487    3444.5207      6154.01 
   43300    296.66581   -1469.4572    7.6310662    3577.6031    5121.4473    5601.0129 
   43400    295.04863   -1469.6986    7.5894678    3199.3837    5595.9021    4029.6344 
   43500    336.11917   -1469.8001    8.6459157    3931.5723       5826.8     5818.643 
   43600    312.41471    -1469.183    8.0361715    3059.0123    4491.5452    4644.3579 
   43700    302.70879    -1469.156    7.7865081    2549.2105    3499.6839    4286.1794 
   43800    296.79936    -1469.742    7.6345013    2393.2699    1804.8055    5436.6002 
   43900    307.69486   -1470.5256    7.9147638    2727.3802    3091.5182      4967.81 
   44000     296.0633   -1469.3347    7.6155677    1902.9511    4559.5378    1403.1447 
   44100    304.30286   -1470.0787    7.8275121    1757.7314     1637.584    3800.2493 
   44200    303.92607   -1470.4148    7.8178201    2187.1772    2444.9517    4191.3005 
   44300    297.87847   -1470.2726    7.6622589    1955.0527    1830.0128    4060.5489 
   44400    304.93161   -1469.6906    7.8436852    1795.2382    1914.1247    3571.4898 
   44500    295.83571   -1469.8988    7.6097136    2816.7319     4003.683    4426.6034 
   44600    329.17904   -1469.5443    8.4673963    2900.6651    3516.5506    5081.8285 
   44700    333.16152   -1470.2271    8.5698366    3214.1262    4816.9067    4781.4899 
   44800    284.57186   -1470.3903    7.3199762    3420.2335    7587.9428    2604.3846 
   44900     292.7497   -1470.6208    7.5303328    3434.0637    6574.6634    3582.5104 
   45000    308.13833   -1470.6696    7.9261711     3521.306    6377.9112    3996.9683 
   45100    284.70228   -1470.5385    7.3233309     2278.703    2206.8637    4605.2471 
   45200    296.10881   -1470.8018    7.6167384    3792.4081     5504.254     5770.258 
   45300     305.8119   -1469.9539    7.8663289     4231.153     6749.755    5775.1382 
   45400     325.6855   -1470.2782    8.3775329    3564.9844    5474.1876    5062.9938 
   45500    316.85379     -1470.62    8.1503569    3308.3442     4923.385    5130.5842 
   45600    287.66416   -1470.2666    7.3995187    3278.8057    3584.1814     6282.088 
   45700     317.1779   -1470.6493    8.1586937    3057.7465    5242.5168    3852.2915 
   45800     307.8118   -1470.5501    7.9177718     3539.297    6109.2793    4292.9359 
   45900    301.24149    -1470.271    7.7487652    2693.9738    4926.4834     3369.802 
   46000    347.92465   -1469.8839    8.9495853    3076.8075    4869.9001    4268.3016 
   46100    308.37478   -1470.4384    7.9322531    1891.7588    2312.8697    3477.1317 
   46200    305.63132   -1470.5649    7.8616838    2905.4661     4404.726    4249.5385 
   46300    299.49503   -1469.6917    7.7038415    3119.5246    4951.3961    4472.8756 
   46400    315.52954    -1469.646    8.1162934    2690.4347     3027.456    5250.2195 
   46500    311.86364   -1470.1154    8.0219963     3251.927    5132.0323     4600.585 
   46600    315.55979    -1469.965    8.1170714    3033.8374    4587.4675    4296.0457 
   46700    283.07566   -1468.8007    7.2814898    2801.9958    3692.0728    4740.1961 
   46800    302.68916   -1470.6868    7.7860033    2841.9781    5289.5192     3306.265 
   46900    299.60561   -1469.8971    7.7066858    1710.4113    4597.2777     721.0173 
   47000     300.1731   -1470.3162    7.7212832    2009.8032    4854.3878    1262.0661 
   47100    280.65014   -1469.7035    7.2190988    3071.7029    5690.0345    3926.1369 
   47200    314.63222   -1470.5199     8.093212    3280.3678    4604.0629    5141.5344 
   47300    280.84121   -1470.1062    7.2240135    2650.6546    2964.4675    4947.9216 
   47400    307.67029   -1470.6861    7.9141318    1840.9416    1273.6965     4210.119 
   47500    298.76678   -1470.0373    7.6851088    2285.1243    2978.9796    4020.5779 
   47600    315.18245   -1470.2231    8.1073654    2772.0983    3989.3954    4447.1476 
   47700    312.19671   -1470.4342    8.0305637    3557.8508    4363.5217    6162.1303 
   47800    303.27338   -1470.7492     7.801031    3343.2443    5066.5382    4808.7257 
   47900    321.50575   -1470.1209    8.2700181    2897.6947    4793.5497    3933.0187 
   48000    326.30802   -1470.1982    8.3935459     2859.147    4161.6969     4373.508 
   48100    293.60304   -1470.7278    7.5522831    1958.7535     1027.812    4852.9086 
   48200    322.56153   -1470.3181    8.2971756    2056.9662    2274.9439      3824.73 
   48300    334.29353    -1470.767    8.5989553    2788.9374    4444.2814    3827.9742 
   48400    310.28439   -1469.5415    7.9813735    3148.4199    4593.8247    4732.1771 
   48500    354.77399   -1469.6397    9.1257695    2529.3488    3481.5109    3986.0773 
   48600    316.97727   -1469.9984    8.1535332    1427.6472    3620.2598    633.73267 
   48700    291.90324   -1470.0307    7.5085597    2629.8472    3946.0855    3976.9514 
   48800    294.16206    -1469.851    7.5666628    2648.9657    5130.9977    2934.5706 
   48900    339.91969   -1469.9941    8.7436757     2355.274    4405.6509    2505.3883 
   49000    338.09764   -1469.9756    8.6968076    1778.8546    2801.3688    2553.7843 
   49100    315.61555   -1469.5592    8.1185059    2305.6995    3395.6884    3539.2758 
   49200    299.40336   -1469.9996    7.7014835    2459.9427    4362.1196    2994.5623 
   49300    268.17849   -1469.7195    6.8982932    3680.3696     6921.673    4161.4117 
   49400    293.32015   -1469.1555    7.5450064    2518.3907    3599.6806      4207.01 
   49500    316.31539   -1470.0481    8.1365076    2104.0669    1283.4013    5039.5201 
   49600    297.31483   -1470.4041    7.6477608    2764.7796    4578.1824     3739.436 
   49700    280.97856   -1470.0012    7.2275465    3104.3385    4386.7128    5017.0212 
   49800    286.99004   -1471.1846    7.3821785    2995.3469    3634.5064    5422.1041 
   49900     304.8158   -1470.7123    7.8407064    2959.4785    3273.7723    5739.7665 
   50000    278.84324   -1469.9037    7.1726201    2612.3274     4502.318    3384.3772 
   50100    291.36149    -1470.444    7.4946243    2685.4622    4604.8684    3444.3875 
   50200    333.30042   -1470.7985    8.5734097    1483.6423    3051.4997    1388.3433 
   50300     305.4904   -1470.3598    7.8580589    1699.3215    2304.2203    2922.9222 
   50400     280.1982   -1470.3593    7.2074736    1523.1379    4306.8763    366.60827 
   50500    301.03079   -1470.1794    7.7433454     3031.529    6065.9259    3026.9244 
   50600    314.02372   -1470.5184    8.0775595    3003.3792    4966.1041    4132.8162 
   50700    303.45557   -1470.4543    7.8057174    2676.9369    3846.2089    4200.5415 
   50800     273.4108   -1470.3333    7.0328829    2844.7785    4005.9203    4603.8568 
   50900    284.22911   -1470.5314    7.3111596     3149.681    4091.8735    5259.7432 
   51000    311.15105   -1469.6715    8.0036666    3336.1445    6562.4465    3390.9113 
   51100    317.18503   -1469.6391    8.1588773    3348.0378    4792.4457    5124.0022 
   51200    272.92184   -1470.3584    7.0203055    2680.8372    4885.9096    3407.5234 
   51300    294.25455   -1470.5488    7.5690418    2543.5601    4884.2558    2716.3821 
   51400    279.30943   -1470.7456    7.1846119    2273.6691    2505.6388    4400.8514 
   51500    277.84666   -1470.6463    7.1469854    2270.0925    1830.9396    5094.0145 
   51600    273.54804   -1470.2235    7.0364129    2220.9209    1928.3121    4794.4846 
   51700    304.38799   -1469.7479    7.8297019    3341.4418    4235.9589    5761.8799 
   51800     335.3714   -1470.5208    8.6266811    3309.1296    6015.3151    3804.2052 
   51900    272.92069   -1470.8743    7.0202757     2573.829     2580.219    5190.7723 
   52000    314.31722    -1470.286    8.0851091    2278.1668     1833.134     5011.446 
   52100     278.4441   -1470.1882    7.1623531    2049.0144    1696.6045    4477.5459 
   52200    280.27249   -1470.9315    7.2093846    2043.0204    4400.6631    1726.9403 
   52300    287.00163   -1470.8443    7.3824766    2668.6083     5387.947    2692.8911 
   52400     298.8155   -1469.5477    7.6863621    1792.9498    4246.6887    1365.8607 
   52500    321.60012   -1469.5756    8.2724456    2890.8701    5088.5348    3562.2604 
   52600    291.64901   -1470.1486      7.50202    3248.2347    5710.8724    3964.7111 
   52700    279.23839   -1470.2601    7.1827845    3439.1592    5007.8018    5329.0669 
   52800    328.93498   -1469.8857    8.4611185     3079.847    4848.6634    4406.3936 
   52900     295.1981   -1469.9153    7.5933126    2966.6441    5969.3033    3049.0891 
   53000    308.46023   -1469.7796    7.9344513    3080.0796    4987.9112     4379.759 
   53100    297.35298   -1470.1541    7.6487419    2716.2055    4065.9287     4041.949 
   53200    310.92658   -1470.6231    7.9978927    2839.5245    5298.5238    3270.7771 
   53300    288.09428   -1469.8206    7.4105826    3316.7589    4542.6504    5438.3309 
   53400    289.80057   -1470.0094     7.454473    3129.5537    4236.1988    5283.4419 
   53500    316.23097   -1470.2746    8.1343361    3186.1321     5525.024    3956.9591 
   53600    296.86398   -1469.6772    7.6361637    2058.3509    6146.9117    166.04575 
   53700    303.06793   -1470.1824    7.7957464    2397.4042    6164.3504    799.70578 
   53800    307.26454   -1469.3941    7.9036947    2688.7008     5732.939    2372.6347 
   53900     324.0024   -1469.7528    8.3342388    2981.4108    5143.8678    3863.0171 
   54000    307.18984   -1470.5888    7.9017732    3206.2518    4791.0021    4863.7639 
   54100    316.38266   -1470.4107     8.138238    3249.6485    4607.7678    5018.6889 
   54200    315.41929   -1469.7689    8.1134575    3611.9154    4620.0619    6281.4638 
   54300    302.76678   -1470.3228    7.7879998    2821.3487    2858.5136    5573.0528 
   54400    310.06503   -1469.5472    7.9757311    1684.0867    930.59469     4441.684 
   54500    304.93717   -1469.7478    7.8438284    2153.1281     1607.656    4857.4524 
   54600     293.3924   -1470.5487     7.546865     2302.694    2487.6659    4341.1783 
   54700    284.38259   -1470.3241    7.3151076    3601.2181    6035.1333    4710.3501 
   54800    298.51316   -1469.7476    7.6785851    2947.4102    5089.4389    3825.3803 
   54900    310.97936   -1470.3461    7.9992503    2757.1424    4534.4597    3563.6196 
   55000    277.00104   -1471.2064    7.1252336    1643.5795      3855.71    1142.0735 
   55100    292.94852   -1470.7512    7.5354471    1443.2127    3016.6663    1367.6593 
   55200    305.81268   -1470.5712     7.866349    1865.6682    3198.4144    2621.0252 
   55300    291.81787   -1469.9481    7.5063637    1861.3589    3939.2043    1806.3104 
   55400    309.53808   -1469.6837    7.9621764    2370.8121    3257.0219     3715.704 
   55500    310.36178   -1469.7989    7.9833643    2168.2084    2669.9246    3952.5427 
   55600     309.0285   -1469.7773    7.9490686    2683.9342    4145.1559    4000.5073 
   55700    319.73196   -1470.0482    8.2243913    2061.9045    2326.4794    4094.4312 
   55800    308.82482   -1470.2467    7.9438296     2693.591    3169.6014    4973.3471 
   55900    295.41814   -1469.6394    7.5989726    3008.3206    3603.1985    5474.2088 
   56000    286.53867   -1469.1336    7.3705679     3000.076    3624.2957    5565.9916 
   56100    280.12025   -1470.2638    7.2054683    3021.3419    4537.9812    4660.1789 
   56200    298.91672    -1469.932    7.6889657    3024.1943     4745.575    4362.3016 
   56300    294.38065   -1469.7278    7.5722854    2990.6772    3009.7915    5826.7753 
   56400    320.06731   -1469.8973    8.2330173    2628.0526    2374.3027     5501.359 
   56500     312.6567   -1470.5613     8.042396    3107.7275    4729.4201    4555.8823 
   56600    282.23314     -1470.76    7.2598177     2857.159    4258.0069    4142.5844 
   56700    273.77101    -1470.598    7.0421484    1508.9569    931.48143    3517.0176 
   56800    275.62823   -1470.7395    7.0899211    1755.9934      2727.53    2575.2215 
   56900    306.16061    -1470.496    7.8752986    2594.2795    2985.0401    4617.2281 
   57000    280.55122   -1470.5687    7.2165542    2187.3375    4803.9764    1755.6937 
   57100    282.85457   -1469.6873    7.2758027    2554.5206    4294.0212    3513.8886 
   57200    274.21702   -1470.3516    7.0536211    2605.5312    4663.7038    3036.3655 
   57300    335.31776   -1469.4555    8.6253012     3022.785    5121.8615    4029.4031 
   57400    305.30972   -1468.8133    7.8534115    2068.9339    2293.5418    4079.6051 
   57500    297.35146   -1470.1074    7.6487028    2572.1579    3704.1506    4176.0554 
   57600    290.84123   -1470.0686    7.4812417    2461.7222    2683.9914    4688.1698 
   57700    267.79867   -1469.7276    6.8885233    2704.8857    3543.6597    4681.0335 
   57800    287.57168   -1470.3238      7.39714    2934.7387    3454.1179     5282.481 
   57900    332.73193   -1470.3766    8.5587864    1958.8455    1141.4637    4809.6093 
   58000    299.73557   -1469.4072    7.7100288     2008.671     1008.654    4927.3544 
   58100    327.30088    -1470.163    8.4190848    3398.6196    5186.1434    4919.5472 
   58200    327.01903    -1469.555    8.4118349    3656.8192    5651.6882    5155.4434 
   58300    307.19104   -1470.3538    7.9018042    2734.2283    3646.5506    4521.4931 
   58400    313.15579   -1470.7485     8.055234    2811.9199    3830.4227    4308.0117 
   58500    282.57327   -1470.5324     7.268567    2205.3132    2641.8421    4159.0251 
   58600    301.57399   -1469.5703    7.7573181    3117.3592    4864.0498    4456.7169 
   58700    296.30811   -1469.5703     7.621865    2789.8206    5626.1035    2815.7488 
   58800    294.25747   -1469.8076    7.5691168    2134.8277    4228.4189    2339.2717 
   58900    312.72344   -1469.4737    8.0441128    2713.1878    3277.2829    4917.9292 
   59000    308.87253   -1470.0749    7.9450567    2459.1872    3532.7309    3925.9542 
   59100     303.7002   -1469.9319    7.8120101    2833.8309    3069.3682    5412.8983 
   59200    316.93186    -1470.478     8.152365    1559.1238    150.87535    4431.3922 
   59300    299.35456   -1469.5643     7.700228    1587.4066    1668.4508     3295.525 
   59400     325.1767   -1469.5613    8.3644451    2547.2188    3340.5178    4217.1357 
   59500    314.69129   -1470.1522    8.0947314    3565.9224    5211.0183     5477.212 
   59600    318.10949   -1469.5733    8.1826568    3817.4017    7120.3659    4194.7175 
   59700    304.46078   -1470.7712    7.8315744    2959.6573    4884.5949    3843.6957 
   59800    259.51195   -1470.2457    6.6753659    2289.5162     3663.158    3373.1821 
   59900    261.69827   -1469.9451    6.7316041    1716.8694    6384.2447   -1003.6816 
   60000    290.45441   -1470.1567    7.4712917    329.74831     4957.988   -3694.2841 
   60100    277.88009   -1470.3601    7.1478453    1964.3081    4850.3945    1187.6036 
   60200    288.58861   -1470.8391    7.4232981    3771.6057    4876.3998    6349.2219 
   60300    284.95464   -1469.8822    7.3298223    3165.2661     4793.182    4820.0695 
   60400    276.84568    -1469.933    7.1212373    3604.5722    5470.8567    5411.0268 
   60500    317.07008   -1469.8734    8.1559204    3730.2823    5861.9123    5131.5041 
   60600     342.6931   -1469.4983    8.8150154    3599.2998    5406.1491    5347.2223 
   60700    274.41366   -1469.3643    7.0586792    2554.8506     2809.908    5056.3449 
   60800    314.27199   -1469.7863    8.0839457    2944.5875    4358.6656    4476.7917 
   60900    300.15355    -1470.316    7.7207805    3448.5827    4556.2818    5689.6348 
   61000    301.85211   -1469.6727     7.764472    3103.9967    4591.5707    4628.0455 
   61100    292.38185   -1470.3268    7.5208706     2267.427    4939.5796    2072.6993 
   61200    279.27969   -1470.2214     7.183847    2707.3037    5073.3358    3077.2954 
   61300    306.63473   -1469.8619    7.8874942    3213.3841    4207.8132     5428.167 
   61400    283.82637   -1470.4436       7.3008    3704.6014    4258.7502    6859.1148 
   61500    283.15824   -1470.0596     7.283614     3395.884    5045.7865    5315.8017 
   61600    308.71371   -1469.5884    7.9409715    3210.7073    4574.2843    4862.9938 
   61700    288.29262   -1470.2398    7.4156845    1866.1074    2618.9456     3011.699 
   61800    297.48564   -1469.8934    7.6521544    3065.5212    4959.5657    4335.8872 
   61900    296.14435   -1470.0488    7.6176527     3587.341    5884.5653    4981.0697 
   62000    296.28889   -1470.5913    7.6213707    2869.9207    5556.6695    3086.4358 
   62100    296.96718   -1470.3112     7.638818     2400.988    3724.8027    3461.7516 
   62200    293.47092   -1469.8908    7.5488848    2525.7397    4537.1144    3025.5214 
   62300    286.01087   -1470.2243    7.3569915      3504.84    5809.8817    4707.8832 
   62400     306.7488   -1470.4221    7.8904286    3520.6644    5103.6128    5509.5401 
   62500    299.27463    -1469.704    7.6981721    3470.0044    5311.9583    5040.8206 
   62600    257.18141   -1469.7345     6.615418     2838.057    4258.9326    4478.1654 
   62700    282.41353   -1469.6974    7.2644581     3070.942    3851.7334     5357.933 
   62800     297.9075    -1470.222    7.6630057    1987.1412    1866.7507    4101.2136 
   62900    293.92293   -1470.7702    7.5605116    2995.5295    4333.1258    4585.6247 
   63000    294.69736   -1469.8035    7.5804321    3840.0729    6340.6703    5071.3974 
   63100    316.93489   -1470.3364     8.152443    3411.4575     3764.128    6355.6485 
   63200    290.79444   -1470.7811    7.4800382    2222.6975    1377.5259    5257.5346 
   63300    268.33932   -1470.1237    6.9024303    934.51134   -1460.0918    4528.9107 
   63400    284.51015   -1470.5382    7.3183888    2909.3383     3495.045     5199.877 
   63500    270.61815   -1470.1659     6.961048    3094.2155    5069.3765    4212.6241 
   63600    338.90443   -1470.3366    8.7175603     3481.139    5272.8605    5117.8706 
   63700    296.63136   -1469.2914    7.6301799    2115.9592    2504.7368     4045.907 
   63800    277.22718   -1469.4881    7.1310507    2128.3738    1798.4158    4717.9826 
   63900    319.88623   -1470.3192    8.2283595    2614.9286    2595.4854    5083.7125 
   64000    286.98546   -1470.8017    7.3820607    2929.5339     3229.449    5676.9665 
   64100    303.01004   -1471.1666    7.7942573    3428.1734    4622.5802    5449.9837 
   64200    285.21024   -1470.3288    7.3363972    2135.3803     3854.981    2682.9167 
   64300    301.49582   -1470.4212    7.7553073    1990.0775     2040.049    4008.0113 
   64400    310.80876    -1471.411     7.994862    2734.9031    2485.9363    5511.1704 
   64500    292.30827   -1470.0898     7.518978    2754.6496    3686.6328    4557.9547 
   64600    288.69351   -1469.9476    7.4259965    3402.5335    5660.2909    4564.6925 
   64700    298.52604   -1470.0479    7.6789164     3121.364     4771.288     4830.822 
   64800    293.61086   -1470.1337    7.5524844    2850.0126     4765.483     3754.548 
   64900    331.46151    -1470.339    8.5261078    1919.6603    3673.5847    2119.2228 
   65000    330.47285   -1470.6277    8.5006768    1599.1894    2392.4048    2510.1944 
   65100    290.69865   -1469.8657    7.4775741    2196.7715    3500.6809    3237.7805 
   65200    272.64438   -1469.8332    7.0131683    2406.8326    3628.8162    3608.0767 
   65300     276.1911   -1470.2698    7.1043997    1512.4861    2852.8245    2007.5394 
   65400    289.29617   -1470.0001    7.4414985    2523.8879    3745.7898    3893.8068 
   65500    318.26875   -1470.7009    8.1867535    2063.9601    1651.9395    4563.0272 
   65600    299.59115   -1469.6847    7.7063138    1900.5302   -374.25683     6122.293 
   65700    275.12488   -1469.8974    7.0769737    1505.7296    173.60624    4510.2372 
   65800    297.94694   -1469.5286    7.6640203    2722.7973    3377.8731    4775.2284 
   65900    291.45188   -1470.3614    7.4969494    2919.0853    3973.7274    4825.3173 
   66000    275.36461   -1469.2208    7.0831403    3146.7652    6321.3164    3121.3331 
   66100    289.44764   -1470.2779    7.4453946    2947.8203    5964.0434    2838.4271 
   66200    308.72814   -1470.4548    7.9413426     2347.049    1984.2214    5066.1023 
   66300    285.39239   -1470.4056    7.3410824    2471.2526    2254.4004    5124.0283 
   66400    303.22369    -1470.756    7.7997528    2996.0755    3174.4138    5727.4075 
   66500    283.67008   -1469.7131      7.29678    2800.8454    5041.7817    3563.9467 
   66600    292.74517   -1470.8765    7.5302162    3399.5903    4628.5072    5349.2836 
   66700     287.0212   -1470.4345    7.3829801    3001.4937    4723.4509    4330.1456 
   66800    308.37006   -1469.6419    7.9321318    3200.0025    4801.7923    4976.7144 
   66900    281.69173   -1469.9466    7.2458913    3549.4317    5583.2968    5097.1402 
   67000    325.42907    -1470.205    8.3709369    3356.2317     5169.942    4653.5047 
   67100    301.77199   -1469.8388    7.7624112     3279.522    6102.1056     3668.014 
   67200     294.9137   -1470.1534    7.5859968     2953.725    4611.3751     4188.637 
   67300    289.36087   -1469.8673    7.4431628    2665.8145    3062.9518    4876.1125 
   67400    303.25097   -1470.5196    7.8004547    2453.5667    2860.9702    4547.8864 
   67500    310.74725   -1470.6497    7.9932798    2550.9375    2561.8564    5134.5467 
   67600    295.83236   -1471.0256    7.6096274    3483.6243    4773.9925    5498.0476 
   67700    321.08409   -1470.0021    8.2591718     2724.209    4416.5503    3725.3458 
   67800    313.42968   -1470.0323    8.0622792    3730.0517    5672.2548    5386.3395 
   67900    296.26378    -1469.766    7.6207246     3486.555    5245.8975    5120.6252 
   68000    247.83177   -1470.1223    6.3749194    2721.7202    5867.0686    2592.9018 
   68100    285.84307   -1471.0679    7.3526752    3020.7393    5417.8761    3572.3978 
   68200    291.83651   -1470.4631     7.506843    2330.1891    6770.7656    52.290502 
   68300    320.08116   -1471.2998    8.2333738    2729.4729    6477.1836    1544.3422 
   68400    314.88092   -1469.7973    8.0996092    2277.4567    3627.6041      3304.23 
   68500    284.32822   -1470.1143    7.3137091    2666.7363    3862.7984    4084.1901 
   68600    287.57337    -1470.133    7.3971833    1673.0565    4295.2896     710.2119 
   68700    289.84679   -1470.2408     7.455662     2362.411    3880.7918    3266.6997 
   68800    294.81429   -1470.3429    7.5834399    3341.5097    4418.1766    5569.1254 
   68900    285.93019   -1470.4318    7.3549163    2478.6227    2712.4501    4789.8122 
   69000    270.56363   -1470.2165    6.9596458    1606.3515    2163.1555    2896.6854 
   69100    294.78663    -1470.458    7.5827283    2450.2964    3621.2349    3680.7091 
   69200    282.79057   -1470.2628    7.2741565    2527.5161    3493.2581    4162.7967 
   69300    279.13885   -1469.6979     7.180224    3146.3473    3613.6149    5847.9432 
   69400    289.05874   -1470.2305    7.4353912    2775.6739    4078.4539    4183.6337 
   69500    299.62151   -1470.2521    7.7070948     1825.664    3234.4573    2371.2293 
   69600    311.02101   -1469.7544    8.0003216    2528.4533    5017.0273    2659.5525 
   69700     297.0857   -1470.0601    7.6418669    1691.9011    3628.7283    1583.0652 
   69800    296.89705   -1469.9001    7.6370143    2503.0069    5792.4494    1587.0925 
   69900    297.65729   -1469.6233    7.6565697    2992.7847     4986.661    3818.9016 
   70000    290.40426   -1469.8081    7.4700017    2165.3334    3403.5041    3087.7192 
   70100    305.92246    -1471.192    7.8691727    3061.3846    5966.9134    3032.6413 
   70200    283.74621   -1470.6593    7.2987383    2498.1738    2648.9036    4827.9474 
   70300    300.13079   -1469.9101    7.7201949    2168.2236    2495.7541    4259.8969 
   70400    279.36677    -1470.075    7.1860869     2271.756    3554.2989    3291.4835 
   70500    316.61659   -1470.3931    8.1442553    1579.2262    1997.2939    2660.3562 
   70600    308.95718   -1469.9494    7.9472343    1927.0305    3634.2434    2199.5782 
   70700    333.19801   -1470.4699    8.5707754    1872.7239    4089.8764    1540.9866 
   70800    314.08169    -1469.849    8.0790506     2574.179    3985.5511    3813.1813 
   70900    311.51288   -1469.3592    8.0129738    3329.4833    3731.8249    6154.2344 
   71000    280.35969   -1469.6598    7.2116275    3033.2295     4118.515    5097.3744 
   71100    269.72567   -1470.0066     6.938091     2600.945    3825.5819    4044.8809 
   71200    294.16338   -1470.6632    7.5666966    2079.8797    1491.3483    4640.5633 
   71300    286.17545   -1470.1891     7.361225    2394.8942    1405.6913     5708.844 
   71400     332.9607   -1469.3674     8.564671     3002.394    4474.0506    4473.5347 
   71500    298.53857   -1468.7497    7.6792387    3584.6302    5144.8443     5687.192 
   71600    304.13772   -1469.3636    7.8232643    3290.7034    5598.3034    4290.8603 
   71700    325.22088   -1470.3206    8.3655815      2456.02    2906.5957     4532.405 
   71800    284.41556   -1469.7277    7.3159556    2498.3851     2032.635    5413.4781 
   71900    280.87404   -1470.0846    7.2248581    2562.9273    1199.9137    6558.9453 
   72000    324.13828   -1470.1652     8.337734    3476.4073     5889.863    4351.2963 
   72100    315.31073   -1470.6346    8.1106651      3038.25    5478.7171     3529.755 
   72200    306.09397   -1469.3113    7.8735845    1894.0498    2447.2314    3351.1619 
   72300    298.12286   -1469.5993    7.6685453    1822.1727    2259.1445    3363.7657 
   72400    298.73435   -1469.8542    7.6842746    2903.7034    4306.2873    4464.5252 
   72500    288.32466   -1470.4282    7.4165085    2890.6233    3224.3885    5477.7816 
   72600    293.41084   -1469.9702    7.5473392    2795.4208    3279.6973    5032.3552 
   72700    286.92863   -1470.6213    7.3805988    1927.9004    2379.7091    3500.6003 
   72800    277.60566   -1470.7718    7.1407863    3463.7153    5062.4362    5296.5704 
   72900     319.4021   -1471.2175    8.2159063      3545.46    4321.5379     6139.108 
   73000    294.72144   -1469.8431    7.5810516    2361.0694    3462.1187    3874.7332 
   73100    322.91433   -1470.2896    8.3062506     2295.284    4556.3418    2361.0829 
   73200    294.70145   -1470.4085    7.5805373    1435.0972    2316.7675    2041.5315 
   73300    283.63921   -1470.4497    7.2959859    2345.7514    3687.0479    3247.0218 
   73400    289.48302   -1470.8723    7.4463048    2700.0052    5284.6562    2709.7688 
   73500    291.22112   -1469.7632    7.4910136     3324.179    4723.2801    5283.7648 
   73600    267.98019   -1469.1164    6.8931924    2886.8182    3376.1523    5467.1746 
   73700    277.62031   -1469.6971     7.141163    1773.3921    1720.2282    3706.7721 
   73800    303.77443   -1470.2318    7.8139193    1623.0849    1956.7156    3035.1014 
   73900    324.51799    -1469.537    8.3475011    1183.4505    2141.3339    1798.8352 
   74000    305.16238   -1469.9894    7.8496215    3178.3015       5085.8    4482.3815 
   74100    296.83529   -1470.8477    7.6354256    2475.6796    2839.0324    4631.9737 
   74200    275.56371   -1470.5882    7.0882615    1477.8343    2305.3192    2123.3776 
   74300    296.28817   -1470.4436    7.6213521    1858.6554    3063.6736    2323.0731 
   74400    321.24294   -1470.3896    8.2632579    2261.5131    3155.2256    3675.5287 
   74500    313.60865   -1470.4782    8.0668829    3302.1605    4231.2038    5570.0888 
   74600    309.78287   -1470.6654    7.9684731    2996.2683    4063.9721    4820.3722 
   74700    300.35925    -1469.243    7.7260715    2551.9054      4548.82    3084.2881 
   74800    287.24607   -1470.1389    7.3887642    3538.0862    4226.2773    6315.1343 
   74900    278.62925   -1470.3997    7.1671157     3334.428    3875.5859    6056.5316 
   75000    333.42401   -1471.2065    8.5765888    3241.4263    3505.2522     5912.058 
   75100    311.82739   -1470.1845     8.021064    2824.5451     5492.663    2885.4553 
   75200    328.61674   -1469.9468    8.4529324    2816.5394    3921.1664    4552.2182 
   75300    317.83719   -1468.8592    8.1756527    3112.0118    3014.1003    6193.0412 
   75400     304.6532    -1470.263    7.8365238    3480.2911     4470.399    5800.0047 
   75500    288.87955   -1470.1421    7.4307818    3709.1604    4886.4252     6164.675 
   75600    306.45155   -1470.1722    7.8827824     3876.148    5122.4915    6424.6077 
   75700    302.49845   -1470.7584    7.7810978    3124.0437    4725.3346    4695.0326 
   75800    271.23815   -1469.8792    6.9769963    2514.6312     4981.471     2617.386 
   75900    290.82028   -1470.3561    7.4807027    2799.6143    4580.7873    3683.8929 
   76000    294.65213   -1470.7641    7.5792688    2952.0946    5017.1121    3800.3389 
   76100    307.29975    -1469.851    7.9046006    2385.4757    3889.2761    3278.3459 
   76200    301.19681   -1470.0268     7.747616    2410.6118    4508.3378    2700.6179 
   76300    328.14485    -1470.663    8.4407942    2774.9262    5239.3104    3128.2474 
   76400    318.33726   -1470.1904    8.1885158    3248.8007    4789.6174    4997.4543 
   76500    300.11633   -1470.0967    7.7198231    3826.6927    4027.9196    7231.6624 
   76600    280.21019   -1470.2262    7.2077819    2976.3047    4007.3126    4995.7279 
   76700    323.03464   -1470.7937    8.3093453    3360.0049    6595.6429     3325.469 
   76800    298.36606   -1469.6084    7.6748013    2858.9481    6153.0166    2547.1659 
   76900    328.37737   -1470.1141    8.4467753    2878.8819    6173.3283    2304.1181 
   77000    302.76321   -1469.8739    7.7879081    2351.0513    2872.2077    4054.8162 
   77100    303.11619   -1470.2859    7.7969877    2912.5256    3165.6379    5586.8197 
   77200    297.85337   -1469.2801    7.6616133    3509.3704    4410.4103    6008.3855 
   77300    292.32256   -1469.4336    7.5193457    3063.6713    3820.8624    5479.6124 
   77400    308.57879   -1469.7576    7.9375008    3151.0727    4710.5297    4895.0189 
   77500    290.95953   -1471.1248    7.4842849    2916.8272    1902.6709    6771.4627 
   77600    303.88543   -1470.7951    7.8167746    3640.7029    6584.1706    4079.0235 
   77700    312.31097   -1470.8033    8.0335029    3905.1609    5638.6198    5760.4525 
   77800    284.96662   -1470.1238    7.3301304     2989.082    4863.4429    4207.5768 
   77900    282.02192   -1470.0428    7.2543847     2889.769    4693.6843    4082.9568 
   78000    330.81971   -1469.9485    8.5095989     3318.403    5048.2774    4938.6786 
   78100    318.56225   -1469.7651    8.1943031    3388.0203    4517.1931    5679.0198 
   78200     329.8321   -1470.1671     8.484195    2746.7125    3360.4299    4929.4993 
   78300    281.36114   -1468.9421    7.2373877    2685.8033    4170.6457    3984.8451 
   78400    314.98193   -1470.4664    8.1022073    3509.7845    5488.0369    5009.4365 
   78500    317.02588   -1470.0289    8.1547835    3034.4537    5163.4859    3803.8796 
   78600    312.88163   -1469.8222     8.048182    3517.2352    5321.2866    5241.3702 
   78700    317.73015   -1470.3299    8.1728993    3370.5363    4721.0985    5171.7001 
   78800    290.50137   -1470.9029    7.4724996    2593.4181    5184.1348    2450.5844 
   78900    280.70262    -1470.136    7.2204487    2163.1713     4092.683    2514.1015 
   79000     287.7379   -1470.6386    7.4014155     2111.717      2848.31    3452.9093 
   79100    274.02503   -1469.7686    7.0486826     1513.255    822.34182    4046.2007 
   79200    307.43953   -1470.1948    7.9081959     2592.031    4280.8106    3291.6532 
   79300    298.17845   -1468.7599    7.6699754     2831.541    4750.9008    3898.5041 
   79400    301.82108   -1470.1497     7.763674    3751.0895     7023.928    4174.0506 
   79500    279.11037   -1469.9064    7.1794916    2910.0929    3522.3809    5336.9965 
   79600    295.17871    -1470.137    7.5928138    3199.8175    4614.2799    5105.0176 
   79700    300.83867   -1470.1546    7.7384037    2924.3873     3411.086    5395.3642 
   79800     286.7162   -1469.6699    7.3751344    2544.9125    4776.0635    2696.4603 
   79900    258.68111   -1470.5995    6.6539943    2312.3974    4673.4514    2504.8447 
   80000    275.32454   -1470.2777    7.0821095    2940.6714    3738.2875    5209.9161 
   80100    288.60349   -1469.6417    7.4236809    2582.7968    3811.6843    4056.4334 
   80200    293.30873    -1470.241    7.5447127    2728.8286     4914.156    3434.0665 
   80300    284.18819   -1469.5214     7.310107    1847.6071    2638.9877    2966.4734 
   80400    304.63603   -1470.0343    7.8360821    1942.3657    1680.9259    4154.8326 
   80500    346.21582   -1470.2335    8.9056294    2061.7722    1453.6126    4583.6687 
   80600    305.39721   -1470.4214    7.8556619    2101.1863    2164.7227    4208.7126 
   80700    308.45462   -1469.8588     7.934307    2591.4917    3872.5556     4014.774 
   80800    315.82294   -1469.3039    8.1238406     2568.929    3316.5734    4203.0358 
   80900    311.03854   -1470.0314    8.0007724    3240.7852    5041.7954    4760.3705 
   81000    285.96382   -1470.2519    7.3557812    2711.2335    2844.5224    5432.8897 
   81100    308.54438   -1469.9498    7.9366159     2967.145    4265.5914    4821.3147 
   81200    339.39795   -1470.1179    8.7302549    2969.8745    4410.9479    4175.8075 
   81300    295.82525   -1469.4522    7.6094445    1905.8558    2002.4828     3898.311 
   81400    302.97645   -1470.1469    7.7933931    3075.2787    4269.1926    4952.2924 
   81500    291.83879   -1469.7456    7.5069017    2511.9823    2934.7874    4835.7209 
   81600    296.97329   -1470.0921    7.6389754     1848.088    1308.4611    4297.9359 
   81700    287.81187   -1470.1753    7.4033183    2241.3339    2817.3522     4103.372 
   81800    274.06156   -1469.7159    7.0496222    2351.6337     2860.491    4362.4039 
   81900    323.29243   -1471.1156    8.3159765    2786.1851    3458.6735    4637.9185 
   82000    289.04609   -1469.7311    7.4350659    2881.1488    4145.7966    4682.2373 
   82100    287.43718   -1469.3391    7.3936802    2706.8802    4199.2065    4009.5165 
   82200    295.11165   -1469.9689    7.5910889    2407.8457    3215.6645    4155.3217 
   82300    308.13172   -1470.6245     7.926001     1537.143    581.79812    4066.7735 
   82400    270.32509   -1469.7541    6.9535098    2695.8795    2606.6879    5416.4044 
   82500    295.32967   -1469.2034    7.5966969    1863.1486    3119.1548    2556.2272 
   82600    313.22178    -1470.502    8.0569313    1761.7748    319.06077    4876.6167 
   82700    278.54798   -1469.3491    7.1650252    2256.5047    1362.9252    5344.7269 
   82800    312.22724   -1469.0173    8.0313492    2530.6518    2447.9156    5124.2364 
   82900    314.27255   -1470.2939    8.0839601    2689.7865    3982.2288    4059.8658 
   83000    302.57153   -1469.9032    7.7829776     3193.702    4337.3759    5305.5453 
   83100    306.73428   -1469.8685    7.8900549    2910.5664     5324.564    3609.9344 
   83200    286.80205   -1469.6421    7.3773428    2926.0911    4196.4776    4561.3181 
   83300    262.61981   -1469.9034    6.7553088    1511.0485    3060.3767    1599.2488 
   83400    319.00183    -1469.838    8.2056104    1625.0861    1896.9449    2892.6985 
   83500    305.35441   -1469.9664     7.854561    2488.6158    2770.2643     4690.353 
   83600    288.52149    -1470.987    7.4215716     2479.384    5369.9629    2086.0564 
   83700    286.79855   -1470.5545    7.3772527    3166.1512     4980.908    4447.1634 
   83800    291.58456   -1469.9914    7.5003622    2151.4566    3943.5672      2603.44 
   83900    285.63985   -1469.5055    7.3474479    2979.1707    4912.2855    4058.0064 
   84000    312.87278   -1470.8498    8.0479543     2917.871    4796.0885    3895.7252 
   84100    273.32263   -1469.4796    7.0306149    2717.6769    3844.4138    4543.5604 
   84200    293.49274   -1470.5026     7.549446     2766.254    3877.8419    4380.5966 
   84300     300.8725   -1470.3049    7.7392737    3307.6609    4859.1559    4976.0833 
   84400    266.26794   -1470.5063    6.8491486    2965.9285    3887.6707    5072.9755 
   84500    287.99711   -1470.1149     7.408083    3605.8388    4870.4719    5969.1366 
   84600    332.75572   -1470.6452    8.5593984    3563.1494    4243.9001    6238.5262 
   84700    294.32017    -1470.526    7.5707297    2394.5866    2396.8742    4941.5021 
   84800    298.01659   -1469.7381     7.665812    2276.3349    3945.2438    3104.7436 
   84900    306.58369   -1469.8494    7.8861814    1999.8955    3510.7876    2682.2871 
   85000    311.60157   -1470.6078    8.0152552    2798.7154    4739.6388    3596.2629 
   85100     284.6204   -1469.9148    7.3212248    3025.7387    4346.5244     4815.765 
   85200    290.66393   -1469.9308     7.476681    3435.5741    4004.8714    6483.5043 
   85300    275.17739     -1470.19    7.0783244    3213.7676    4275.7653    5441.2396 
   85400    311.86147   -1470.8201    8.0219405    3771.7874    5939.2121    5112.3411 
   85500    310.11387   -1469.3209    7.9769873     2866.679    4632.5475     3902.828 
   85600     292.1513   -1470.4546    7.5149404    2659.3504    4068.0043    3872.5534 
   85700    305.60293   -1470.6664    7.8609535    3044.1616    4691.2601    4384.5086 
   85800     292.7896    -1470.474    7.5313592    2878.0912    5377.8257    3281.5145 
   85900    325.55749   -1471.1646      8.37424    3245.6606    4894.9114    4634.1241 
   86000    308.66515   -1470.1974    7.9397224    2950.8386    3896.3032    5051.9536 
   86100    302.22795    -1469.724    7.7741398    2337.7264    4434.2581    2560.4818 
   86200     284.6562   -1469.6611    7.3221455    2252.3598    3248.2798    3506.2997 
   86300    290.39506   -1470.3389     7.469765    3791.4563    5588.1865    5734.2683 
   86400    315.08091   -1470.6228    8.1047533    2956.3467    4951.6197    3909.1772 
   86500    302.24471   -1469.9483    7.7745708    3046.7333    3932.1593    5134.8231 
   86600    307.09977   -1470.9316    7.8994564    3569.0936    5424.6302    5057.1426 
   86700    314.73966   -1469.3686    8.0959756    3029.2291    3801.0685    5242.8979 
   86800     287.5254   -1469.8722    7.3959495    3382.2151    6252.3631    3780.3124 
   86900    298.77845   -1470.5785     7.685409    1795.5471    5002.7876    535.45394 
   87000    299.79451   -1469.8916    7.7115449    3065.7344    4993.8555    4258.4615 
   87100    289.54087    -1470.055    7.4477928    3097.7287     4023.982    5298.7908 
   87200    278.54491   -1470.8048    7.1649464     2671.081    4011.5248    4040.3994 
   87300    291.69259   -1470.1442    7.5031411    2321.9957    3942.1582    3044.9096 
   87400     309.8426   -1469.1332    7.9700095    2353.8155    5205.6423    1870.8058 
   87500    288.82068   -1469.3183    7.4292676    2673.7554    3773.5052    4235.8776 
   87600    274.95095   -1470.4162    7.0724997    2535.8616    3123.8855    4690.9681 
   87700    273.94524   -1470.0732      7.04663    3347.7536     5029.134    5157.4586 
   87800     300.8941   -1470.4739    7.7398294    2548.4121    4628.5715      3004.32 
   87900     308.9054   -1470.2411    7.9459023    2340.2116    3395.9884    3613.4401 
   88000    318.84742   -1469.9518    8.2016385    2991.9442    3648.2782    5308.6956 
   88100    317.19347    -1471.087    8.1590943    2653.3417    2104.8231    5819.8362 
   88200    305.64342   -1469.4246     7.861995    1949.6358    1979.2048    4057.8321 
   88300    294.91554   -1470.0013    7.5860442    2717.0258    3557.3035    4571.3358 
   88400    317.58581   -1470.4631    8.1691864    1523.6577    2309.2384    2213.7392 
   88500    268.16008   -1469.1733    6.8978198    2137.1112    4559.3603    1976.8872 
   88600    293.98044   -1470.4766    7.5619908    823.35884    2738.0109   -188.12836 
   88700     282.1504   -1469.7793    7.2576895    1026.3904    1283.6796    1908.9658 
[...]
 1978800    281.96717   -1470.5716    7.2529764    1806.0854    4039.6847    1533.0052 
 1978900    302.82721   -1470.2273    7.7895543     1656.001    2741.4225    2172.9211 
 1979000    337.00622   -1470.3237    8.6687332    2703.5324    4697.6928     3433.439 
 1979100    299.06283   -1470.4473    7.6927241    3769.2045    6333.9022    4871.4412 
 1979200    308.03432   -1469.4736    7.9234957    3041.1594    4670.6428    4589.2832 
 1979300    328.09959   -1469.4526      8.43963    2767.6117    5270.8522    3112.7408 
 1979400    317.14074   -1469.6745     8.157738    3108.3618     3396.759    5873.6584 
 1979500     301.3263   -1470.2249    7.7509468    3523.6517    4461.3967    6026.4567 
 1979600    308.88704   -1469.4962    7.9454299    2768.3959     4182.367    4316.7783 
 1979700    328.94771   -1469.7872    8.4614458    2347.3799     3708.856    3351.3295 
 1979800    310.94511   -1470.1248    7.9983693    2206.0192    3283.7299    3314.0459 
 1979900    292.23125   -1470.6649    7.5169968     1284.403    2806.3344    1099.5555 
 1980000    323.39388   -1470.4758    8.3185861    1646.5394    3677.7757    1285.0315 
 1980100    313.37208   -1469.6827    8.0607975    2993.3709    3745.6896     5279.688 
 1980200     319.6192   -1471.0341    8.2214909    3221.9136    2912.4802    6581.5639 
 1980300    286.17785     -1470.35    7.3612867    2655.3446    3688.5623    4362.1962 
 1980400    324.92004   -1470.3516    8.3578431    3376.7209    5643.8226    4337.2793 
 1980500    297.08573   -1470.0544    7.6418677    3200.6459    4532.8583    5159.4693 
 1980600    309.85626   -1470.8395    7.9703609    3439.0015    6120.5741    4065.3406 
 1980700    295.84094    -1469.818    7.6098482    2719.4538    2017.5103    6217.3467 
 1980800    295.38333   -1469.6218    7.5980772    1971.3698    2419.2249    3609.0127 
 1980900    309.62259   -1469.9434    7.9643502    2454.5393    4520.5439    2705.8563 
 1981000    298.20632   -1469.4909    7.6706923    2320.0271    3584.2343    3452.4125 
 1981100     319.9683   -1470.2297    8.2304707    2697.9577    5189.0439    2826.9889 
 1981200    293.53603   -1470.6814    7.5505593    3156.6139     4353.766    5098.0292 
 1981300    278.69522   -1470.4116    7.1688128    2389.6683    2889.4685    4509.2161 
 1981400    288.34041   -1470.8055    7.4169138    2604.1239    3477.8098     4342.632 
 1981500    285.59006   -1470.2285    7.3461671    2758.6514    3827.1996    4414.0794 
 1981600     307.2597   -1470.0694    7.9035703     2118.231    1828.7214    4427.5851 
 1981700    332.22685     -1470.75    8.5457945    2046.6551    2144.9409     3875.964 
 1981800    303.33748   -1470.5897    7.8026799    2424.0029    2234.6229    4862.4396 
 1981900    273.34736   -1470.0972    7.0312509    2751.0145    5117.2699    3156.4093 
 1982000    287.90009   -1469.4936    7.4055875    2105.5263     2669.563    3774.1214 
 1982100    292.57123   -1469.0584    7.5257421    1129.4928    352.35641    3366.7845 
 1982200    324.89908   -1470.1013     8.357304    2479.9432    2301.2762    5099.5286 
 1982300    310.28962   -1470.2563    7.9815082    2610.1321    3683.4537    3938.9156 
 1982400    307.11299    -1469.858    7.8997963    2518.6517    3405.5649    4102.3788 
 1982500    299.94508   -1469.3848     7.715418    2461.1568    1899.3245    5587.8093 
 1982600    289.89346   -1469.7785    7.4568625    3242.2324    4774.8583    5020.3293 
 1982700    316.23255   -1469.8402    8.1343767    2987.2736    4575.1939    4202.9529 
 1982800    287.27546   -1469.9168    7.3895203     2180.816     4141.101    2554.9325 
 1982900    324.02363   -1469.9288    8.3347849    1668.5145    2965.8951    1905.6002 
 1983000    290.28516   -1470.0654    7.4669381    2400.6769    2743.9143     4519.893 
 1983100     272.8679   -1470.5811    7.0189179    1637.9106    1237.1118    3934.0356 
 1983200    307.35086   -1470.1103    7.9059153    2419.3247    4283.6128    2996.0913 
 1983300    275.99104   -1469.5957    7.0992537    2009.2117    2378.0247     3864.795 
 1983400    325.10965   -1469.9073    8.3627205    2702.0868    2841.7507    5209.7303 
 1983500    291.00226   -1470.0721     7.485384    2889.9786    5708.3691    2933.8251 
 1983600    298.09857   -1470.2446    7.6679206    3473.1049     5989.408    4412.7281 
 1983700    322.83034   -1469.9457    8.3040903    2265.0449    4128.9357    2535.2325 
 1983800    315.85273   -1469.6377    8.1246068    2642.0676     5225.147    2616.7406 
 1983900    335.03474   -1469.9991    8.6180212    2217.0086    2550.1289    4340.4345 
 1984000    316.13487   -1471.4377    8.1318641    2509.7468    3884.9879    3567.2309 
 1984100    311.31836   -1470.4865    8.0079702    2441.1176    2552.0833    4670.1359 
 1984200    287.31878   -1469.7291    7.3906345    2564.9245    5437.1155    2257.0281 
 1984300    319.46202   -1470.4251    8.2174476    1905.2499     5354.993    345.01245 
 1984400    299.80627   -1469.6657    7.7118474    1982.0978     3869.883    2244.7575 
 1984500    317.62668   -1470.1549    8.1702376      3176.27    3710.4827    5775.9854 
 1984600    299.70375   -1470.0049    7.7092103    3295.3162    4735.1365    5192.5409 
 1984700    301.34009   -1469.0738    7.7513015    2737.1301    4008.9418    4194.8087 
 1984800    307.86755   -1469.4735    7.9192058    2445.5615    3798.2474    3624.1007 
 1984900     292.6574   -1469.9209    7.5279587    1722.0043    2461.8396    2904.5653 
 1985000    287.54112    -1469.883    7.3963537    3193.5774    4533.7999    5068.1392 
 1985100    308.95409   -1470.4002    7.9471546    3031.9861    5016.1326    4133.5105 
 1985200    310.07336   -1470.6649    7.9759453    3077.9526    3664.9381    5421.9141 
 1985300    314.92489   -1469.3755    8.1007402    2092.6778    1848.1898    4682.8738 
 1985400    294.79072   -1469.4592    7.5828335    2410.8425    2595.2248    4683.3918 
 1985500    315.99788   -1470.4228    8.1283404    1980.2112    1535.1993    4280.1919 
 1985600    298.97395   -1468.8737    7.6904378    1984.6744     3006.678    2875.5986 
 1985700     343.2468   -1470.1745     8.829258    1984.8528    2880.8962    3010.9388 
 1985800    316.76005   -1469.8099    8.1479456    2376.1581    3737.4361      3331.56 
 1985900    320.76731   -1469.5632    8.2510234    2293.7789    4216.8793    2831.6047 
 1986000    291.37193   -1469.2645    7.4948928    2507.8068    3547.4608    4069.3726 
 1986100    319.60647   -1470.0751    8.2211634    2531.1931    2370.0968    5028.4741 
 1986200    311.08028   -1469.6054    8.0018461    2464.2734    2332.9521     4981.591 
 1986300    293.33132   -1469.4814    7.5452938    3110.3446    3644.2042    5652.3777 
 1986400    272.75257   -1469.4335    7.0159514    3210.0996    3975.1127    5841.1319 
 1986500    284.24958   -1469.5132    7.3116861    3565.2877    5580.8179    5028.8334 
 1986600    306.27783   -1469.4281    7.8783137    3337.3375    6070.5901    3788.5463 
 1986700    286.87786    -1469.396     7.379293     1498.643    2496.1535    2192.3283 
 1986800     320.0237   -1470.1445    8.2318957    2539.2131    3604.5775    3932.2609 
 1986900    273.17444   -1469.6613     7.026803    1536.9967     1553.722    3224.4942 
 1987000    288.48488   -1469.6707    7.4206299    2030.3686    2829.8028    3311.0185 
 1987100    281.21878   -1469.6657    7.2337258    3020.8181    5361.3877    3686.9845 
 1987200    297.19912   -1470.7572    7.6447843       2882.5    4557.5715    3928.8292 
 1987300    324.27512   -1470.2924     8.341254    1842.2774    4092.2573    1358.1204 
 1987400     314.3243   -1470.8691    8.0852914    2449.8187    3427.9765    3813.0237 
 1987500    290.47103   -1469.5352    7.4717191     2934.404    3517.6808    5264.6244 
 1987600    319.53544   -1469.9547    8.2193364    3104.8454    3921.0322    5386.9855 
 1987700    284.96017    -1469.771    7.3299647    2571.9228    4149.2224    3821.8297 
 1987800    306.45579   -1469.8027    7.8828914     1885.548    3010.0109    2542.1453 
 1987900    286.44802   -1469.7976    7.3682363    2588.3549    3937.5664    3977.1466 
 1988000    315.24927   -1470.6931     8.109084    2671.6353     5181.144       2778.6 
 1988100     305.1092   -1470.1468    7.8482534    2732.6645    5481.7912    2729.3939 
 1988200     309.3769   -1470.5458    7.9580304    2794.8335    4335.4183    3867.3633 
 1988300    335.55823   -1469.7458    8.6314867    2582.2471    5491.8781    2549.1292 
 1988400    303.38531   -1470.3521    7.8039102    3547.5924    6216.3533    4419.5262 
 1988500    293.02529   -1470.5703    7.5374219    3335.9487    3342.2987    6573.9842 
 1988600    305.78686    -1470.645    7.8656846    2510.1399    2902.4544    4689.8042 
 1988700    317.57488   -1470.1825    8.1689053     3191.304    5341.6947     4100.185 
 1988800    306.50985   -1469.6695     7.884282    3098.4052    5694.8732    3770.4452 
 1988900     291.2294   -1469.6066    7.4912265    3549.9055    6390.6078    4407.1577 
 1989000    287.64723   -1470.2968    7.3990833    3083.6408     6082.701    3296.3907 
 1989100      305.359   -1470.3075     7.854679    2482.3614    3584.8597    3938.9073 
 1989200     301.7015   -1470.3288     7.760598    4070.2238    5668.2141     6384.512 
 1989300    303.36424   -1469.8935    7.8033683    2379.6715    4126.9234    3034.0432 
 1989400    310.39774    -1470.527    7.9842892    2354.3016    3784.3669    3348.9478 
 1989500    295.77762   -1470.3702    7.6082194    2540.3117    3341.8536    4190.6375 
 1989600     274.5498   -1470.1455     7.062181    2464.4524    4181.8576    3457.0807 
 1989700    306.57417   -1470.5391    7.8859364    3007.9151    4239.0315     4714.239 
 1989800    279.25362   -1469.8901    7.1831762    2602.8381    4103.7158    3842.3723 
 1989900    309.29996   -1470.2659    7.9560513    1209.1861    1699.1191    2070.3516 
 1990000    274.90374   -1470.4055    7.0712854    1522.3988    1569.3008    3097.6098 
 1990100    283.22195   -1470.0938    7.2852527    2668.0555    3250.1662    4914.2095 
 1990200    298.35738   -1470.3389    7.6745779     3346.479    5179.6668    4768.5057 
 1990300    302.43274   -1470.3249    7.7794075    2325.9056    3560.8332    3500.2052 
 1990400    274.48948     -1469.66    7.0606295     2908.355    4787.1729    4051.6023 
 1990500    293.05956   -1470.1127    7.5383033    2934.0894    5248.2501    3587.1186 
 1990600    288.52596   -1471.0849    7.4216866    1945.0813    2658.1958    3171.9418 
 1990700    314.28947    -1470.295    8.0843955    1920.2388    2892.9724    2730.1701 
 1990800    312.26575   -1470.5572    8.0323397    2310.8129    4964.9618    1909.4045 
 1990900    292.92429   -1470.7941    7.5348237    2767.8132    2320.5849    5911.4427 
 1991000    291.82043   -1470.0316    7.5064295    2183.2114    1667.1474    4827.7799 
 1991100    272.95293   -1469.6869    7.0211051    2817.0862    3841.4927    4886.7824 
 1991200    303.04517   -1469.6113    7.7951607    3298.8396    5616.9147     4179.189 
 1991300    315.02545   -1470.5224    8.1033269    2950.5127    3399.8934    5358.2579 
 1991400    319.15712    -1470.306    8.2096047    2289.7407    3073.5069    3728.6377 
 1991500    325.59158   -1470.7226    8.3751171    1897.5271    2376.4498    3282.8295 
 1991600    305.36291   -1469.6557    7.8547796    1942.8911    2657.4566    3283.7854 
 1991700    298.70592   -1469.4486    7.6835434    2541.7487    3230.7467    4302.1602 
 1991800    299.21045   -1470.0599    7.6965212    1291.9595    403.52413      3681.38 
 1991900    314.27691   -1470.7486    8.0840723    1765.1121    2291.2347    2870.1561 
 1992000    291.18257   -1470.2316    7.4900219    1012.2826    -672.6396    3892.1564 
 1992100     297.0885   -1470.3435    7.6419387    1936.7038    1036.8915    4939.2067 
 1992200    314.61261   -1470.0992    8.0927073    2144.3722    4284.5541     2095.289 
 1992300    305.37101   -1470.1903     7.854988    1938.9377    4223.2459    1627.2205 
 1992400    297.51322   -1470.0375    7.6528638    2586.4677     5132.813    2556.7005 
 1992500    337.89751   -1470.6515    8.6916595    2628.5794    3673.9799     4074.835 
 1992600    292.95854   -1469.8759    7.5357048    3201.7157    5756.1276    3973.3996 
 1992700    320.23553   -1470.3792    8.2373446    3390.1634     5990.212    4229.1192 
 1992800    292.97142   -1470.3168    7.5360361    2499.5739    3804.5674    3932.7063 
 1992900    288.30211   -1469.7773    7.4159285    3637.3902    6027.9572    4817.1833 
 1993000    272.70761   -1470.6174    7.0147949    2855.4102    5359.6151    3161.4906 
 1993100    266.42759   -1470.0498    6.8532553    2907.0859    5263.2597    3627.7715 
 1993200    301.15392   -1470.6506    7.7465128    3328.8935    5403.5748    4428.3191 
 1993300    315.35389   -1470.7516    8.1117751    2202.1299    4425.9113    2266.9055 
 1993400     280.3778   -1469.9118    7.2120934    2849.4055    3269.3836    5394.1003 
 1993500    293.27668   -1470.2471    7.5438881    1908.4116    2165.3853    3594.0158 
 1993600     289.7938   -1470.4107    7.4542989    1949.8215    1475.5563    4440.4654 
 1993700    305.09553   -1470.7401    7.8479017    2961.8027    3219.4749    5498.8205 
 1993800    272.27338   -1470.3032    7.0036253     3464.149    5753.7354    4564.6747 
 1993900    303.14738   -1470.3519      7.79779    3478.9608    6256.7181    4090.0163 
 1994000    289.53871   -1470.2899    7.4477372    2558.0613    3170.1392    4413.7857 
 1994100    294.35314   -1470.0914    7.5715777    2411.2534    3403.9714    3940.9853 
 1994200     317.1884   -1470.0869    8.1589639    2713.6616     3121.063     4918.041 
 1994300    309.02547   -1469.6262    7.9489907    3040.5081    3562.4347    5593.6814 
 1994400    279.68187   -1469.0268    7.1941921    2998.8676    4914.6394    4109.3054 
 1994500    303.43216   -1470.0293    7.8051154    2157.6858    5790.4154    732.47605 
 1994600    298.24382   -1470.9016    7.6716569    2599.0501    4369.1512    3337.1818 
 1994700    322.21418   -1470.0933     8.288241    3612.9566    5655.3892     5216.093 
 1994800    311.95128   -1470.5685    8.0242508    2868.6915    4945.4687    3644.2025 
 1994900    294.17539   -1469.4051    7.5670056    2824.3831     4424.862    3983.7735 
 1995000    345.36606   -1471.0952    8.8837713    1748.3395    2309.9641    2794.6962 
 1995100    309.68766   -1469.7231     7.966024    2702.3628    4220.4567    3868.5643 
 1995200    310.04422   -1469.4806    7.9751957    2238.4414    3606.6802    3085.1121 
 1995300    319.08769   -1470.7962    8.2078189    2179.7683    4804.9634    1682.2642 
 1995400    292.73612   -1469.1384    7.5299834    2868.1802     4993.456    3741.6513 
 1995500    280.00433   -1469.3678    7.2024866    2583.0654    3264.5821    4725.3901 
 1995600    313.85644   -1470.4216    8.0732566    3064.7069    4316.8188    4678.2083 
 1995700    312.12836   -1469.8044    8.0288058    1656.6188    3074.5356    2058.1136 
 1995800     325.8531   -1469.6214     8.381844    2479.9197    3497.5217    3896.6123 
 1995900     334.3384   -1470.1789    8.6001093    2081.2529    1953.0545     4277.606 
 1996000    316.40564   -1470.2008    8.1388291    2036.6768    816.76703    5324.7412 
 1996100    294.24672   -1469.2945    7.5688404    2316.7668    2803.4341    4234.5264 
 1996200    300.64243    -1470.595    7.7333558    3078.0961    5786.3924    3285.2715 
 1996300    282.35771    -1470.205    7.2630221    3278.7696    5217.9622    4711.5508 
 1996400    294.16389   -1470.4416    7.5667097    3271.7809    3738.2061    6129.4894 
 1996500    285.68364   -1469.3166    7.3485742    2686.5125    2811.0473    5411.1914 
 1996600    293.99152   -1470.4827    7.5622758    2091.4604    2055.0651    4315.0855 
 1996700     272.5788    -1469.727    7.0114816      2583.31    3551.5568    4142.9397 
 1996800    293.95893   -1470.6619    7.5614377    1984.1132     3784.858     2123.026 
 1996900    325.63142   -1470.5677    8.3761418    1519.8858    2389.5614    2202.3638 
 1997000    286.30678   -1469.8045     7.364603    2377.3483     3022.247    4137.5131 
 1997100    278.82975   -1471.0264    7.1722733    1851.8145    2897.0961       2635.3 
 1997200    280.72059    -1469.289    7.2209109    1306.0915    4232.1289   -365.06577 
 1997300    278.52704   -1471.2057    7.1644868     2408.067    4419.4681    2668.3994 
 1997400    275.98349   -1470.2472    7.0990594    3290.7873    3808.1807    6027.3987 
 1997500    317.11619   -1470.0616    8.1571065    2751.2942    2270.5898    5921.3447 
 1997600    309.79148    -1470.793    7.9686946    2100.3935     4473.278    1807.5608 
 1997700    318.68533     -1469.65     8.197469    2120.7132    4188.2897    2114.6877 
 1997800    334.96435   -1469.4879    8.6162104    1841.3469    1141.9085    4443.0074 
 1997900    319.39917   -1469.5753     8.215831    2858.7356    4509.8733    4053.9187 
 1998000    293.20253   -1469.0077     7.541981    2526.1875     3450.076    4350.8995 
 1998100    318.05275   -1469.5058    8.1811974    2479.0843     3521.674    4058.5496 
 1998200    282.98166   -1470.4454    7.2790717    2659.0239    2610.1543    5266.4925 
 1998300    293.29724   -1470.1911    7.5444171    3207.4673    3811.0424    5847.8205 
 1998400    272.69266   -1470.2305    7.0144103    3131.1942     4756.168    4698.0336 
 1998500    308.55497   -1471.0438    7.9368882    2768.4252    4202.9983    3981.9846 
 1998600    292.06816   -1470.7576    7.5128018    3667.0889    4928.9872    6012.5349 
 1998700      304.432   -1470.5433    7.8308338    3578.7902    5263.1817    5527.8422 
 1998800    282.22115   -1470.5113    7.2595095    2790.9306    5417.2422    3030.2953 
 1998900    278.21722   -1469.7566    7.1565172    2314.7857    2558.5636    4538.9766 
 1999000    296.57084   -1469.9836    7.6286231    2128.1329    1789.1391    4643.3485 
 1999100    296.15756   -1469.8754    7.6179925    1890.3397    1808.7228    3970.9178 
 1999200    294.75825   -1469.7817    7.5819984    2580.5278    2334.7529    5300.6117 
 1999300     342.5299   -1470.5187    8.8108175    3093.8142    3371.7154    5768.1434 
 1999400    319.40648   -1470.6626     8.216019    2661.8436    3544.6685    4357.0057 
 1999500    280.26782   -1471.3911    7.2092644    3874.8585    4501.1473    6786.8343 
 1999600    293.93995    -1470.041    7.5609495    2481.6128     3029.801    4418.2316 
 1999700    322.62423   -1469.6214    8.2987886     1976.344    3920.5994    2069.5006 
 1999800    306.08074   -1470.0956    7.8732441    1818.1955    5606.3018   -13.743215 
 1999900    302.17769   -1469.6132    7.7728468    2342.9118    4495.4528    2631.7584 
 2000000    333.06255   -1470.2828     8.567291    2045.6693     2887.681    3224.5856 
Loop time of 262.063 on 8 procs for 2000000 steps with 200 atoms

Performance: 1318.766 ns/day, 0.018 hours/ns, 7631.745 timesteps/s
100.0% CPU use with 8 MPI tasks x no OpenMP threads

MPI task timing breakdown:
Section |  min time  |  avg time  |  max time  |%varavg| %total
---------------------------------------------------------------
Pair    | 113.25     | 120.56     | 128.48     |  47.3 | 46.01
Neigh   | 0.077275   | 0.079649   | 0.082044   |   0.6 |  0.03
Comm    | 101.06     | 104.65     | 107.61     |  21.3 | 39.93
Output  | 0.47465    | 0.49453    | 0.53503    |   2.4 |  0.19
Modify  | 24.824     | 29.165     | 33.421     |  77.4 | 11.13
Other   |            | 7.116      |            |       |  2.72

Nlocal:    25 ave 37 max 14 min
Histogram: 2 0 1 1 0 0 0 3 0 1
Nghost:    120 ave 131 max 108 min
Histogram: 1 0 3 0 0 0 1 1 0 2
Neighs:    0 ave 0 max 0 min
Histogram: 8 0 0 0 0 0 0 0 0 0
FullNghs:  450 ave 666 max 252 min
Histogram: 2 0 1 1 0 0 0 3 0 1

Total # of neighbors = 3600
Ave neighs/atom = 18
Neighbor list builds = 3202
Dangerous builds = 0
write_restart Restart.final

Please see the log.cite file for references relevant to this simulation

Total wall time: 0:04:22
