LAMMPS (4 Jan 2019)
# test Vashishta potential for quartz

units		metal
boundary	p p p

atom_style	atomic

read_data	data.quartz
  triclinic box = (0 0 0) to (4.9134 4.25513 5.4052) with tilt (-2.4567 0 0)
  2 by 2 by 2 MPI processor grid
  reading atoms ...
  9 atoms

replicate       4 4 4
  triclinic box = (0 0 0) to (19.6536 17.0205 21.6208) with tilt (-9.8268 0 0)
  2 by 2 by 2 MPI processor grid
  576 atoms
  Time spent = 0.000504827 secs
velocity	all create 2000.0 277387 mom yes
displace_atoms	all move 0.05 0.9 0.4 units box

pair_style 	vashishta
pair_coeff	* *  SiO.1990.vashishta Si O
Reading potential file SiO.1990.vashishta with DATE: 2015-10-14

neighbor	0.3 bin
neigh_modify	delay 10

fix		1 all nve
thermo		10
timestep	0.001

#dump		1 all cfg 10 *.cfg mass type xs ys zs vx vy vz fx fy fz
#dump_modify	1 element Si O

run		100
Neighbor list info ...
  update every 1 steps, delay 10 steps, check yes
  max neighbors/atom: 2000, page size: 100000
  master list distance cutoff = 10.3
  ghost atom cutoff = 10.3
  binsize = 5.15, bins = 6 4 5
  1 neighbor lists, perpetual/occasional/extra = 1 0 0
  (1) pair vashishta, perpetual
      attributes: full, newton on
      pair build: full/bin/atomonly
      stencil: full/bin/3d
      bin: standard
Per MPI rank memory allocation (min/avg/max) = 2.815 | 2.815 | 2.815 Mbytes
Step Temp E_pair E_mol TotEng Press 
       0         2000    -5280.875            0   -5132.2259   -20502.321 
      10    895.65237    -5198.402            0    -5131.833    419.34676 
      20    932.93463   -5201.1569            0   -5131.8169   -21407.961 
      30    936.09591   -5201.3998            0   -5131.8248   -32531.168 
      40    930.05159   -5201.0073            0   -5131.8816   -46445.212 
      50    904.64676    -5199.062            0   -5131.8245   -31402.385 
      60    1005.5353   -5206.5725            0   -5131.8365   -29790.442 
      70    941.02343   -5201.7644            0   -5131.8232   -23046.796 
      80    1020.1044   -5207.6763            0   -5131.8574   -13488.675 
      90    912.75535    -5199.651            0   -5131.8108    2715.5897 
     100    998.97588   -5206.1008            0   -5131.8523    6024.3651 
Loop time of 0.253585 on 8 procs for 100 steps with 576 atoms

Performance: 34.071 ns/day, 0.704 hours/ns, 394.346 timesteps/s
99.6% CPU use with 8 MPI tasks x no OpenMP threads

MPI task timing breakdown:
Section |  min time  |  avg time  |  max time  |%varavg| %total
---------------------------------------------------------------
Pair    | 0.20217    | 0.21421    | 0.21986    |   1.2 | 84.47
Neigh   | 0.008911   | 0.0093212  | 0.0095435  |   0.2 |  3.68
Comm    | 0.023579   | 0.029451   | 0.041895   |   3.3 | 11.61
Output  | 0.0002486  | 0.00026348 | 0.00029824 |   0.0 |  0.10
Modify  | 0.00012199 | 0.00012551 | 0.00013114 |   0.0 |  0.05
Other   |            | 0.0002161  |            |       |  0.09

Nlocal:    72 ave 74 max 70 min
Histogram: 1 0 1 0 0 4 0 1 0 1
Nghost:    2388.5 ave 2394 max 2381 min
Histogram: 1 0 0 1 1 1 1 2 0 1
Neighs:    0 ave 0 max 0 min
Histogram: 8 0 0 0 0 0 0 0 0 0
FullNghs:  26308.8 ave 27002 max 25580 min
Histogram: 1 0 1 0 1 3 0 0 1 1

Total # of neighbors = 210470
Ave neighs/atom = 365.399
Neighbor list builds = 10
Dangerous builds = 10

Total wall time: 0:00:00
