LAMMPS (6 Jul 2017)
  using 1 OpenMP thread(s) per MPI task
# GCMC for CO2 molecular fluid, rigid/small/nvt dynamics
# Rigid CO2 TraPPE model
# [Potoff and J.I. Siepmann, Vapor-liquid equilibria of
# mixtures containing alkanes, carbon dioxide and
# nitrogen AIChE J., 47,1676-1682 (2001)].

# variables available on command line

variable        mu index -8.1
variable	disp index 0.5
variable        temp index 338.0
variable        lbox index 10.0
variable        spacing index 5.0

# global model settings

units           real
atom_style      full
boundary        p p p
pair_style      lj/cut/coul/long  14
pair_modify     mix arithmetic tail yes
kspace_style    ewald 0.0001
bond_style      harmonic
angle_style     harmonic

# box, start molecules on simple cubic lattice

lattice 	sc ${spacing}
lattice 	sc 5.0
Lattice spacing in x,y,z = 5 5 5
region          box block 0 ${lbox} 0 ${lbox} 0 ${lbox} units box
region          box block 0 10.0 0 ${lbox} 0 ${lbox} units box
region          box block 0 10.0 0 10.0 0 ${lbox} units box
region          box block 0 10.0 0 10.0 0 10.0 units box
create_box      2 box                                       bond/types 1                                angle/types 1                               extra/bond/per/atom 2                       extra/angle/per/atom 1                      extra/special/per/atom 2
Created orthogonal box = (0 0 0) to (10 10 10)
  1 by 2 by 2 MPI processor grid
molecule        co2mol CO2.txt
Read molecule co2mol:
  3 atoms with 2 types
  2 bonds with 1 types
  1 angles with 1 types
  0 dihedrals with 0 types
  0 impropers with 0 types
molecule        h2omol H2O.txt
Read molecule h2omol:
  3 atoms with 2 types
  2 bonds with 1 types
  1 angles with 1 types
  0 dihedrals with 0 types
  0 impropers with 0 types
create_atoms   	0 box mol h2omol 464563 units box
Created 24 atoms

# rigid SPC/E water model

pair_coeff      1 1 0.15535 3.166
pair_coeff      * 2 0.0000 0.0000

bond_coeff      1     1000       1.0
angle_coeff     1      100       109.47

# masses

mass 1 15.9994
mass 2 1.0

# MD settings

group           h2o type 1 2
24 atoms in group h2o
neighbor        2.0 bin
neigh_modify    every 1 delay 1 check yes
velocity       	all create ${temp} 54654
velocity       	all create 338.0 54654
timestep        1.0

minimize 0.0 0.0 100 1000
WARNING: Using 'neigh_modify every 1 delay 0 check yes' setting during minimization (../min.cpp:168)
Ewald initialization ...
WARNING: Using 12-bit tables for long-range coulomb (../kspace.cpp:321)
  G vector (1/distance) = 0.170448
  estimated absolute RMS force accuracy = 0.0332064
  estimated relative force accuracy = 0.0001
  KSpace vectors: actual max1d max3d = 16 2 62
                  kxmax kymax kzmax  = 2 2 2
Neighbor list info ...
  update every 1 steps, delay 0 steps, check yes
  max neighbors/atom: 2000, page size: 100000
  master list distance cutoff = 16
  ghost atom cutoff = 16
  binsize = 8, bins = 2 2 2
  1 neighbor lists, perpetual/occasional/extra = 1 0 0
  (1) pair lj/cut/coul/long, perpetual
      attributes: half, newton on
      pair build: half/bin/newton
      stencil: half/bin/3d/newton
      bin: standard
Per MPI rank memory allocation (min/avg/max) = 11.85 | 11.85 | 11.85 Mbytes
Step Temp E_pair E_mol TotEng Press 
       0          338   -4.9610706 9.2628112e-06    18.211756    730.90791 
     100          338   -15.742442   0.14954269     7.579918   -637.49568 
Loop time of 0.0671751 on 4 procs for 100 steps with 24 atoms

96.8% CPU use with 4 MPI tasks x 1 OpenMP threads

Minimization stats:
  Stopping criterion = max iterations
  Energy initial, next-to-last, final = 
        -4.96106135393     -15.5388622715      -15.592899346
  Force two-norm initial, final = 15.474 18.1478
  Force max component initial, final = 5.80042 7.56514
  Final line search alpha, max atom move = 0.00151131 0.0114333
  Iterations, force evaluations = 100 328

MPI task timing breakdown:
Section |  min time  |  avg time  |  max time  |%varavg| %total
---------------------------------------------------------------
Pair    | 0.0084391  | 0.015861   | 0.02675    |   5.3 | 23.61
Bond    | 0.00027275 | 0.00034869 | 0.00042224 |   0.0 |  0.52
Kspace  | 0.0066137  | 0.017514   | 0.025154   |   5.1 | 26.07
Neigh   | 0          | 0          | 0          |   0.0 |  0.00
Comm    | 0.028022   | 0.028266   | 0.028522   |   0.1 | 42.08
Output  | 2.8372e-05 | 2.9981e-05 | 3.4332e-05 |   0.0 |  0.04
Modify  | 0          | 0          | 0          |   0.0 |  0.00
Other   |            | 0.005156   |            |       |  7.68

Nlocal:    6 ave 8 max 3 min
Histogram: 1 0 0 0 1 0 0 0 0 2
Nghost:    1722 ave 1725 max 1720 min
Histogram: 2 0 0 0 0 0 1 0 0 1
Neighs:    1256.75 ave 2101 max 667 min
Histogram: 1 0 1 0 1 0 0 0 0 1

Total # of neighbors = 5027
Ave neighs/atom = 209.458
Ave special neighs/atom = 2
Neighbor list builds = 0
Dangerous builds = 0
reset_timestep 0
# rigid constraints with thermostat

fix             mynvt all nvt temp ${temp} ${temp} 100
fix             mynvt all nvt temp 338.0 ${temp} 100
fix             mynvt all nvt temp 338.0 338.0 100
fix             wshake  all shake 0.0001 50 0 b 1 a 1 mol h2omol
  0 = # of size 2 clusters
  0 = # of size 3 clusters
  0 = # of size 4 clusters
  8 = # of frozen angles
# gcmc



run 1000
Ewald initialization ...
WARNING: Using 12-bit tables for long-range coulomb (../kspace.cpp:321)
  G vector (1/distance) = 0.170448
  estimated absolute RMS force accuracy = 0.0332064
  estimated relative force accuracy = 0.0001
  KSpace vectors: actual max1d max3d = 16 2 62
                  kxmax kymax kzmax  = 2 2 2
Per MPI rank memory allocation (min/avg/max) = 11.6 | 11.6 | 11.6 Mbytes
Step Temp E_pair E_mol TotEng Press 
       0    518.26667   -15.742442            0    7.4303753    -613.0781 
    1000    369.81793   -54.202686            0   -37.667331    294.98823 
Loop time of 0.197854 on 4 procs for 1000 steps with 24 atoms

Performance: 436.686 ns/day, 0.055 hours/ns, 5054.232 timesteps/s
98.5% CPU use with 4 MPI tasks x 1 OpenMP threads

MPI task timing breakdown:
Section |  min time  |  avg time  |  max time  |%varavg| %total
---------------------------------------------------------------
Pair    | 0.014957   | 0.029312   | 0.04149    |   5.7 | 14.82
Bond    | 0.00018859 | 0.00020105 | 0.00022173 |   0.0 |  0.10
Kspace  | 0.02194    | 0.033932   | 0.048018   |   5.3 | 17.15
Neigh   | 0.0023339  | 0.0024368  | 0.0024924  |   0.1 |  1.23
Comm    | 0.078058   | 0.078514   | 0.079116   |   0.2 | 39.68
Output  | 3.171e-05  | 3.3677e-05 | 3.9339e-05 |   0.0 |  0.02
Modify  | 0.047643   | 0.048113   | 0.048564   |   0.2 | 24.32
Other   |            | 0.005312   |            |       |  2.68

Nlocal:    6 ave 8 max 3 min
Histogram: 1 0 0 0 0 0 1 0 1 1
Nghost:    1331.5 ave 1369 max 1290 min
Histogram: 1 0 0 0 0 2 0 0 0 1
Neighs:    1259.75 ave 1642 max 428 min
Histogram: 1 0 0 0 0 0 0 1 0 2

Total # of neighbors = 5039
Ave neighs/atom = 209.958
Ave special neighs/atom = 2
Neighbor list builds = 27
Dangerous builds = 0

variable        tfac equal 5.0/3.0 # (3 trans + 2 rot)/(3 trans)
fix             mygcmc all gcmc 100 100 0 0 54341 ${temp} ${mu} ${disp} mol                 h2omol tfac_insert ${tfac} group h2o shake wshake
fix             mygcmc all gcmc 100 100 0 0 54341 338.0 ${mu} ${disp} mol                 h2omol tfac_insert ${tfac} group h2o shake wshake
fix             mygcmc all gcmc 100 100 0 0 54341 338.0 -8.1 ${disp} mol                 h2omol tfac_insert ${tfac} group h2o shake wshake
fix             mygcmc all gcmc 100 100 0 0 54341 338.0 -8.1 0.5 mol                 h2omol tfac_insert ${tfac} group h2o shake wshake
fix             mygcmc all gcmc 100 100 0 0 54341 338.0 -8.1 0.5 mol                 h2omol tfac_insert 1.66666666666667 group h2o shake wshake

# output

variable	tacc equal f_mygcmc[2]/(f_mygcmc[1]+0.1)
variable	iacc equal f_mygcmc[4]/(f_mygcmc[3]+0.1)
variable	dacc equal f_mygcmc[6]/(f_mygcmc[5]+0.1)
variable	racc equal f_mygcmc[8]/(f_mygcmc[7]+0.1)
compute_modify  thermo_temp dynamic/dof yes
thermo_style    custom step temp press pe ke density atoms v_iacc v_dacc v_tacc v_racc
thermo          1000

# run

run             5000
Ewald initialization ...
WARNING: Using 12-bit tables for long-range coulomb (../kspace.cpp:321)
  G vector (1/distance) = 0.170448
  estimated absolute RMS force accuracy = 0.0332064
  estimated relative force accuracy = 0.0001
  KSpace vectors: actual max1d max3d = 16 2 62
                  kxmax kymax kzmax  = 2 2 2
WARNING: Fix gcmc using full_energy option (../fix_gcmc.cpp:445)
0 atoms in group FixGCMC:gcmc_exclusion_group:mygcmc
0 atoms in group FixGCMC:rotation_gas_atoms:mygcmc
WARNING: Neighbor exclusions used with KSpace solver may give inconsistent Coulombic energies (../neighbor.cpp:472)
Per MPI rank memory allocation (min/avg/max) = 11.6 | 11.6 | 11.6 Mbytes
Step Temp Press PotEng KinEng Density Atoms v_iacc v_dacc v_tacc v_racc 
    1000    369.81793    295.32434   -54.202686    16.535355   0.23910963       24            0            0            0            0 
    2000    84.544466   -2810.9047   -344.81664    14.364627   0.86677242       87  0.052198354 0.0099581757            0            0 
    3000    75.188527    -3688.256   -425.02228    14.567977   0.98632724       99  0.030546787 0.0049111089            0            0 
    4000    75.019396   -5669.3063   -427.69454    14.535207   0.98632724       99  0.019972039 0.0033375609            0            0 
    5000    90.415371   -2141.7596   -434.65925    17.518218   0.98632724       99  0.014909796  0.002514964            0            0 
    6000    78.212628   -943.75125   -428.80584    15.153904   0.98632724       99   0.01181521 0.0020316119            0            0 
Loop time of 21.1914 on 4 procs for 5000 steps with 99 atoms

Performance: 20.386 ns/day, 1.177 hours/ns, 235.945 timesteps/s
98.8% CPU use with 4 MPI tasks x 1 OpenMP threads

MPI task timing breakdown:
Section |  min time  |  avg time  |  max time  |%varavg| %total
---------------------------------------------------------------
Pair    | 1.4322     | 2.2377     | 2.9867     |  43.1 | 10.56
Bond    | 0.0062718  | 0.0078831  | 0.0094054  |   1.3 |  0.04
Kspace  | 0.20065    | 0.95616    | 1.7635     |  65.9 |  4.51
Neigh   | 0.094692   | 0.095002   | 0.095287   |   0.1 |  0.45
Comm    | 1.107      | 1.1157     | 1.1217     |   0.5 |  5.27
Output  | 0.00028276 | 0.00029987 | 0.00034523 |   0.0 |  0.00
Modify  | 16.72      | 16.725     | 16.728     |   0.1 | 78.92
Other   |            | 0.05411    |            |       |  0.26

Nlocal:    24.75 ave 28 max 22 min
Histogram: 2 0 0 0 0 0 0 0 1 1
Nghost:    5640.75 ave 5697 max 5582 min
Histogram: 2 0 0 0 0 0 0 0 0 2
Neighs:    21009.2 ave 28568 max 13273 min
Histogram: 1 0 1 0 0 0 0 1 0 1

Total # of neighbors = 84037
Ave neighs/atom = 848.859
Ave special neighs/atom = 2
Neighbor list builds = 5124
Dangerous builds = 0

Total wall time: 0:00:21
