LAMMPS (4 Jan 2019)
# Demonstrate SNAP Ta potential

# Initialize simulation

variable nsteps index 100
variable nrep equal 4
variable a equal 3.1803
units		metal

# generate the box and atom positions using a BCC lattice

variable nx equal ${nrep}
variable nx equal 4
variable ny equal ${nrep}
variable ny equal 4
variable nz equal ${nrep}
variable nz equal 4

boundary	p p p

lattice         bcc $a
lattice         bcc 3.1803
Lattice spacing in x,y,z = 3.1803 3.1803 3.1803
region		box block 0 ${nx} 0 ${ny} 0 ${nz}
region		box block 0 4 0 ${ny} 0 ${nz}
region		box block 0 4 0 4 0 ${nz}
region		box block 0 4 0 4 0 4
create_box	1 box
Created orthogonal box = (0 0 0) to (12.7212 12.7212 12.7212)
  2 by 2 by 2 MPI processor grid
create_atoms	1 box
Created 128 atoms
  Time spent = 0.000559853 secs

mass 1 183.84

# choose potential

include W_2940_2017_2.snap
# DATE: 2017-02-20 CONTRIBUTOR: Mitchell Wood mitwood@sandia.gov CITATION: Wood, M. A. and Thompson, A. P. "Quantum-Accurate Molecular Dynamics Potential for Tungsten" arXiv:1702.07042 [physics.comp-ph]
#
# Definition of SNAP+ZBL potential.
variable zblcutinner equal 4
variable zblcutouter equal 4.8
variable zblz equal 74

# Specify hybrid with SNAP and ZBL

pair_style hybrid/overlay zbl ${zblcutinner} ${zblcutouter} snap
pair_style hybrid/overlay zbl 4 ${zblcutouter} snap
pair_style hybrid/overlay zbl 4 4.8 snap
pair_coeff 1 1 zbl ${zblz} ${zblz}
pair_coeff 1 1 zbl 74 ${zblz}
pair_coeff 1 1 zbl 74 74
pair_coeff * * snap W_2940_2017_2.snapcoeff W_2940_2017_2.snapparam W
Reading potential file W_2940_2017_2.snapcoeff with DATE: 2017-02-20
SNAP Element = W, Radius 0.5, Weight 1 
Reading potential file W_2940_2017_2.snapparam with DATE: 2017-02-20
SNAP keyword rcutfac 4.73442 
SNAP keyword twojmax 8 
SNAP keyword rfac0 0.99363 
SNAP keyword rmin0 0 
SNAP keyword diagonalstyle 3 
SNAP keyword bzeroflag 0 
SNAP keyword quadraticflag 0 

#Nomenclature on the snap files are Element_DakotaID_Year_Month

# Setup output

thermo		10
thermo_modify norm yes

# Set up NVE run

timestep 0.5e-3
neighbor 1.0 bin
neigh_modify once no every 1 delay 0 check yes

# Run MD

velocity all create 300.0 4928459
fix 1 all nve
run             ${nsteps}
run             100
Neighbor list info ...
  update every 1 steps, delay 0 steps, check yes
  max neighbors/atom: 2000, page size: 100000
  master list distance cutoff = 5.8
  ghost atom cutoff = 5.8
  binsize = 2.9, bins = 5 5 5
  2 neighbor lists, perpetual/occasional/extra = 2 0 0
  (1) pair zbl, perpetual, half/full from (2)
      attributes: half, newton on
      pair build: halffull/newton
      stencil: none
      bin: none
  (2) pair snap, perpetual
      attributes: full, newton on
      pair build: full/bin/atomonly
      stencil: full/bin/3d
      bin: standard
Per MPI rank memory allocation (min/avg/max) = 5.129 | 5.129 | 5.129 Mbytes
Step Temp E_pair E_mol TotEng Press 
       0          300   -11.028325            0    -10.98985     3010.497 
      10    293.44819   -11.027484            0   -10.989849    3245.0333 
      20    274.46541    -11.02505            0   -10.989849     3922.286 
      30    244.97604   -11.021267            0   -10.989849    4967.9258 
      40    207.94819   -11.016518            0   -10.989849    6268.6983 
      50    167.08253   -11.011277            0   -10.989848     7685.245 
      60    126.41632   -11.006061            0   -10.989848    9067.9315 
      70    89.881822   -11.001375            0   -10.989848    10273.948 
      80    60.869783   -10.997654            0   -10.989848     11183.64 
      90    41.854716   -10.995215            0   -10.989848    11713.976 
     100    34.135389   -10.994225            0   -10.989848    11827.306 
Loop time of 1.52687 on 8 procs for 100 steps with 128 atoms

Performance: 2.829 ns/day, 8.483 hours/ns, 65.493 timesteps/s
100.0% CPU use with 8 MPI tasks x no OpenMP threads

MPI task timing breakdown:
Section |  min time  |  avg time  |  max time  |%varavg| %total
---------------------------------------------------------------
Pair    | 1.3396     | 1.4289     | 1.5218     |   6.7 | 93.59
Neigh   | 0          | 0          | 0          |   0.0 |  0.00
Comm    | 0.0041962  | 0.09702    | 0.18629    |  25.8 |  6.35
Output  | 0.00031051 | 0.00038602 | 0.00040378 |   0.0 |  0.03
Modify  | 4.9136e-05 | 5.4628e-05 | 5.9088e-05 |   0.0 |  0.00
Other   |            | 0.0004821  |            |       |  0.03

Nlocal:    16 ave 16 max 16 min
Histogram: 8 0 0 0 0 0 0 0 0 0
Nghost:    325 ave 325 max 325 min
Histogram: 8 0 0 0 0 0 0 0 0 0
Neighs:    464 ave 464 max 464 min
Histogram: 8 0 0 0 0 0 0 0 0 0
FullNghs:  928 ave 928 max 928 min
Histogram: 8 0 0 0 0 0 0 0 0 0

Total # of neighbors = 7424
Ave neighs/atom = 58
Neighbor list builds = 0
Dangerous builds = 0

Total wall time: 0:00:01
