LAMMPS (29 Aug 2024 - Development - f820c928a)
# REAX potential for Fe/O/H system
# .....

units		real

atom_style	charge
read_data	data.FeOH3
Reading data file ...
  orthogonal box = (0 0 0) to (25 25 25)
  2 by 2 by 2 MPI processor grid
  reading atoms ...
  105 atoms
  read_data CPU = 0.003 seconds

pair_style	reaxff lmp_control
WARNING: Ignoring inactive control parameter: simulation_name (src/REAXFF/reaxff_control.cpp:98)
WARNING: Ignoring inactive control parameter: energy_update_freq (src/REAXFF/reaxff_control.cpp:98)
WARNING: Support for writing native trajectories has been removed after LAMMPS version 8 April 2021 (src/REAXFF/reaxff_control.cpp:114)
WARNING: Ignoring inactive control parameter: traj_title (src/REAXFF/reaxff_control.cpp:98)
WARNING: Ignoring inactive control parameter: atom_info (src/REAXFF/reaxff_control.cpp:98)
WARNING: Ignoring inactive control parameter: atom_forces (src/REAXFF/reaxff_control.cpp:98)
WARNING: Ignoring inactive control parameter: atom_velocities (src/REAXFF/reaxff_control.cpp:98)
WARNING: Ignoring inactive control parameter: bond_info (src/REAXFF/reaxff_control.cpp:98)
WARNING: Ignoring inactive control parameter: angle_info (src/REAXFF/reaxff_control.cpp:98)
pair_coeff	* * ffield.reax.Fe_O_C_H H O Fe
Reading potential file ffield.reax.Fe_O_C_H with DATE: 2011-02-18

neighbor	2 bin
neigh_modify	every 10 delay 0 check no

fix		1 all nve
fix             2 all qeq/reax 1 0.0 10.0 1e-6 param.qeq
fix             3 all temp/berendsen 500.0 500.0 100.0

timestep	0.25

#dump		1 all atom 30 dump.reax.feoh

run		3000

CITE-CITE-CITE-CITE-CITE-CITE-CITE-CITE-CITE-CITE-CITE-CITE-CITE

Your simulation uses code contributions which should be cited:

- Type Label Framework: https://doi.org/10.1021/acs.jpcb.3c08419

@Article{Gissinger24,
 author = {Jacob R. Gissinger, Ilia Nikiforov, Yaser Afshar, Brendon Waters, Moon-ki Choi, Daniel S. Karls, Alexander Stukowski, Wonpil Im, Hendrik Heinz, Axel Kohlmeyer, and Ellad B. Tadmor},
 title = {Type Label Framework for Bonded Force Fields in LAMMPS},
 journal = {J. Phys. Chem. B},
 year =    2024,
 volume =  128,
 number =  13,
 pages =   {3282--3297}
}

- pair reaxff command: doi:10.1016/j.parco.2011.08.005

@Article{Aktulga12,
 author = {H. M. Aktulga and J. C. Fogarty and S. A. Pandit and A. Y. Grama},
 title = {Parallel Reactive Molecular Dynamics: {N}umerical Methods and Algorithmic Techniques},
 journal = {Parallel Computing},
 year =    2012,
 volume =  38,
 number =  {4--5},
 pages =   {245--259}
}

- fix qeq/reaxff command: doi:10.1016/j.parco.2011.08.005

@Article{Aktulga12,
 author = {H. M. Aktulga and J. C. Fogarty and S. A. Pandit and A. Y. Grama},
 title = {Parallel Reactive Molecular Dynamics: {N}umerical Methods and Algorithmic Techniques},
 journal = {Parallel Computing},
 year =    2012,
 volume =  38,
 pages =   {245--259}
}

CITE-CITE-CITE-CITE-CITE-CITE-CITE-CITE-CITE-CITE-CITE-CITE-CITE

Neighbor list info ...
  update: every = 10 steps, delay = 0 steps, check = no
  max neighbors/atom: 2000, page size: 100000
  master list distance cutoff = 12
  ghost atom cutoff = 12
  binsize = 6, bins = 5 5 5
  2 neighbor lists, perpetual/occasional/extra = 2 0 0
  (1) pair reaxff, perpetual
      attributes: half, newton off, ghost
      pair build: half/bin/ghost/newtoff
      stencil: full/ghost/bin/3d
      bin: standard
  (2) fix qeq/reax, perpetual, copy from (1)
      attributes: half, newton off
      pair build: copy
      stencil: none
      bin: none
Per MPI rank memory allocation (min/avg/max) = 9.163 | 10.05 | 10.69 Mbytes
   Step          Temp          E_pair         E_mol          TotEng         Press     
         0   0             -9715.3326      0             -9715.3326     -139.61126    
      3000   527.4281      -9636.095       0             -9472.59        115.13902    
Loop time of 3.31872 on 8 procs for 3000 steps with 105 atoms

Performance: 19.526 ns/day, 1.229 hours/ns, 903.963 timesteps/s, 94.916 katom-step/s
96.6% CPU use with 8 MPI tasks x no OpenMP threads

MPI task timing breakdown:
Section |  min time  |  avg time  |  max time  |%varavg| %total
---------------------------------------------------------------
Pair    | 1.1303     | 1.3795     | 1.748      |  17.8 | 41.57
Neigh   | 0.14027    | 0.17044    | 0.19476    |   4.4 |  5.14
Comm    | 0.30325    | 0.68073    | 0.94726    |  25.6 | 20.51
Output  | 9.4646e-05 | 9.821e-05  | 0.00011868 |   0.0 |  0.00
Modify  | 1.0702     | 1.0861     | 1.1124     |   1.5 | 32.73
Other   |            | 0.001848   |            |       |  0.06

Nlocal:         13.125 ave          31 max           3 min
Histogram: 2 0 2 1 0 2 0 0 0 1
Nghost:            309 ave         353 max         263 min
Histogram: 2 0 0 2 0 1 0 0 1 2
Neighs:        576.875 ave        1286 max         136 min
Histogram: 2 1 0 1 2 0 1 0 0 1

Total # of neighbors = 4615
Ave neighs/atom = 43.952381
Neighbor list builds = 300
Dangerous builds not checked
Total wall time: 0:00:03
