LAMMPS (2 Aug 2023 - Development - bc02a7cc6)
# REAX potential for Fe/O/H system
# .....

units		real

atom_style	charge
read_data	data.FeOH3
Reading data file ...
  orthogonal box = (0 0 0) to (25 25 25)
  2 by 2 by 2 MPI processor grid
  reading atoms ...
  105 atoms
  read_data CPU = 0.002 seconds

pair_style	reax/c lmp_control
WARNING: Ignoring inactive control parameter: simulation_name (src/REAXFF/reaxff_control.cpp:98)
WARNING: Ignoring inactive control parameter: energy_update_freq (src/REAXFF/reaxff_control.cpp:98)
WARNING: Support for writing native trajectories has been removed after LAMMPS version 8 April 2021 (src/REAXFF/reaxff_control.cpp:114)
WARNING: Ignoring inactive control parameter: traj_title (src/REAXFF/reaxff_control.cpp:98)
WARNING: Ignoring inactive control parameter: atom_info (src/REAXFF/reaxff_control.cpp:98)
WARNING: Ignoring inactive control parameter: atom_forces (src/REAXFF/reaxff_control.cpp:98)
WARNING: Ignoring inactive control parameter: atom_velocities (src/REAXFF/reaxff_control.cpp:98)
WARNING: Ignoring inactive control parameter: bond_info (src/REAXFF/reaxff_control.cpp:98)
WARNING: Ignoring inactive control parameter: angle_info (src/REAXFF/reaxff_control.cpp:98)
pair_coeff	* * ffield.reax.Fe_O_C_H H O Fe
Reading potential file ffield.reax.Fe_O_C_H with DATE: 2011-02-18

neighbor	2 bin
neigh_modify	every 10 delay 0 check no

fix		1 all nve
fix             2 all qeq/reax 1 0.0 10.0 1e-6 param.qeq
fix             3 all temp/berendsen 500.0 500.0 100.0

timestep	0.25

#dump		1 all atom 30 dump.reax.feoh

run		3000

CITE-CITE-CITE-CITE-CITE-CITE-CITE-CITE-CITE-CITE-CITE-CITE-CITE

Your simulation uses code contributions which should be cited:

- pair reaxff command: doi:10.1016/j.parco.2011.08.005

@Article{Aktulga12,
 author = {H. M. Aktulga and J. C. Fogarty and S. A. Pandit and A. Y. Grama},
 title = {Parallel Reactive Molecular Dynamics: {N}umerical Methods and Algorithmic Techniques},
 journal = {Parallel Computing},
 year =    2012,
 volume =  38,
 number =  {4--5},
 pages =   {245--259}
}

- fix qeq/reaxff command: doi:10.1016/j.parco.2011.08.005

@Article{Aktulga12,
 author = {H. M. Aktulga and J. C. Fogarty and S. A. Pandit and A. Y. Grama},
 title = {Parallel Reactive Molecular Dynamics: {N}umerical Methods and Algorithmic Techniques},
 journal = {Parallel Computing},
 year =    2012,
 volume =  38,
 pages =   {245--259}
}

CITE-CITE-CITE-CITE-CITE-CITE-CITE-CITE-CITE-CITE-CITE-CITE-CITE

Neighbor list info ...
  update: every = 10 steps, delay = 0 steps, check = no
  max neighbors/atom: 2000, page size: 100000
  master list distance cutoff = 12
  ghost atom cutoff = 12
  binsize = 6, bins = 5 5 5
  2 neighbor lists, perpetual/occasional/extra = 2 0 0
  (1) pair reax/c, perpetual
      attributes: half, newton off, ghost
      pair build: half/bin/newtoff/ghost
      stencil: full/ghost/bin/3d
      bin: standard
  (2) fix qeq/reax, perpetual, copy from (1)
      attributes: half, newton off
      pair build: copy
      stencil: none
      bin: none
Per MPI rank memory allocation (min/avg/max) = 9.163 | 10.05 | 10.69 Mbytes
   Step          Temp          E_pair         E_mol          TotEng         Press     
         0   0             -9715.3326      0             -9715.3326     -139.61126    
      3000   528.19583     -9636.3308      0             -9472.5879      115.23589    
Loop time of 4.13864 on 8 procs for 3000 steps with 105 atoms

Performance: 15.657 ns/day, 1.533 hours/ns, 724.876 timesteps/s, 76.112 katom-step/s
99.8% CPU use with 8 MPI tasks x no OpenMP threads

MPI task timing breakdown:
Section |  min time  |  avg time  |  max time  |%varavg| %total
---------------------------------------------------------------
Pair    | 1.3513     | 1.8122     | 2.4503     |  23.8 | 43.79
Neigh   | 0.1538     | 0.19322    | 0.21119    |   4.5 |  4.67
Comm    | 0.19215    | 0.82946    | 1.2909     |  35.1 | 20.04
Output  | 9.9517e-05 | 0.00010412 | 0.00012401 |   0.0 |  0.00
Modify  | 1.2811     | 1.2999     | 1.3396     |   1.7 | 31.41
Other   |            | 0.003711   |            |       |  0.09

Nlocal:         13.125 ave          31 max           3 min
Histogram: 2 0 2 1 0 2 0 0 0 1
Nghost:            309 ave         353 max         263 min
Histogram: 2 0 0 2 0 1 0 0 1 2
Neighs:        576.875 ave        1286 max         136 min
Histogram: 2 1 0 1 2 0 1 0 0 1

Total # of neighbors = 4615
Ave neighs/atom = 43.952381
Neighbor list builds = 300
Dangerous builds not checked
Total wall time: 0:00:04
