LAMMPS (4 Jan 2019)
# REAX potential for Fe/O/H system
# .....

units		real

atom_style	charge
read_data	data.FeOH3
  orthogonal box = (0 0 0) to (25 25 25)
  2 by 2 by 2 MPI processor grid
  reading atoms ...
  105 atoms

pair_style	reax/c lmp_control
pair_coeff	* * ffield.reax.Fe_O_C_H H O Fe
Reading potential file ffield.reax.Fe_O_C_H with DATE: 2011-02-18

neighbor	2 bin
neigh_modify	every 10 delay 0 check no

fix		1 all nve
fix             2 all qeq/reax 1 0.0 10.0 1e-6 param.qeq
fix             3 all temp/berendsen 500.0 500.0 100.0

timestep	0.25

#dump		1 all atom 30 dump.reax.feoh

run		3000
Neighbor list info ...
  update every 10 steps, delay 0 steps, check no
  max neighbors/atom: 2000, page size: 100000
  master list distance cutoff = 12
  ghost atom cutoff = 12
  binsize = 6, bins = 5 5 5
  2 neighbor lists, perpetual/occasional/extra = 2 0 0
  (1) pair reax/c, perpetual
      attributes: half, newton off, ghost
      pair build: half/bin/newtoff/ghost
      stencil: half/ghost/bin/3d/newtoff
      bin: standard
  (2) fix qeq/reax, perpetual, copy from (1)
      attributes: half, newton off, ghost
      pair build: copy
      stencil: none
      bin: none
Per MPI rank memory allocation (min/avg/max) = 10.1 | 11.15 | 12.02 Mbytes
Step Temp E_pair E_mol TotEng Press 
       0            0   -9715.3326            0   -9715.3326   -139.61126 
    3000     530.0857    -9636.726            0   -9472.3972    144.32492 
Loop time of 4.13859 on 8 procs for 3000 steps with 105 atoms

Performance: 15.658 ns/day, 1.533 hours/ns, 724.885 timesteps/s
99.8% CPU use with 8 MPI tasks x no OpenMP threads

MPI task timing breakdown:
Section |  min time  |  avg time  |  max time  |%varavg| %total
---------------------------------------------------------------
Pair    | 2.8468     | 2.8921     | 2.9518     |   2.1 | 69.88
Neigh   | 0.10076    | 0.1261     | 0.15083    |   4.5 |  3.05
Comm    | 0.090595   | 0.14648    | 0.1938     |   9.3 |  3.54
Output  | 2.7858e-05 | 3.0376e-05 | 4.0918e-05 |   0.0 |  0.00
Modify  | 0.94852    | 0.97222    | 0.9976     |   1.6 | 23.49
Other   |            | 0.001623   |            |       |  0.04

Nlocal:    13.125 ave 31 max 3 min
Histogram: 2 0 2 1 0 2 0 0 0 1
Nghost:    310.125 ave 354 max 263 min
Histogram: 2 0 0 2 0 1 0 0 1 2
Neighs:    576.875 ave 1286 max 136 min
Histogram: 2 1 0 1 2 0 1 0 0 1

Total # of neighbors = 4615
Ave neighs/atom = 43.9524
Neighbor list builds = 300
Dangerous builds not checked

Please see the log.cite file for references relevant to this simulation

Total wall time: 0:00:04
