LAMMPS (27 Oct 2021)
# Simple rigid body system

units		lj
atom_style	atomic

pair_style	lj/cut 2.5

read_data	data.rigid
Reading data file ...
  orthogonal box = (-12.000000 -12.000000 -12.000000) to (12.000000 12.000000 12.000000)
  2 by 2 by 2 MPI processor grid
  reading atoms ...
  81 atoms
  read_data CPU = 0.001 seconds

velocity 	all create 100.0 4928459

# unconnected bodies

group		clump1 id <> 1 9
9 atoms in group clump1
group		clump2 id <> 10 18
9 atoms in group clump2
group		clump3 id <> 19 27
9 atoms in group clump3
group		clump4 id <> 28 36
9 atoms in group clump4
group		clump5 id <> 37 45
9 atoms in group clump5
group		clump6 id <> 46 54
9 atoms in group clump6
group		clump7 id <> 55 63
9 atoms in group clump7
group		clump8 id <> 64 72
9 atoms in group clump8
group		clump9 id <> 73 81
9 atoms in group clump9

fix 1 all rigid/nve group 9 clump1 clump2 clump3 clump4 clump5 	  	      clump6 clump7 clump8 clump9
  9 rigid bodies with 81 atoms

fix_modify 1 bodyforces early

# 1 chain of connected bodies

#group		clump1 id <> 1 9
#group		clump2 id <> 9 18
#group		clump3 id <> 18 27
#group		clump4 id <> 27 36
#group		clump5 id <> 36 45
#group		clump6 id <> 45 54
#group		clump7 id <> 54 63
#group		clump8 id <> 63 72
#group		clump9 id <> 72 81

#fix 1 all poems group clump1 clump2 clump3 clump4 clump5 #	  	      clump6 clump7 clump8 clump9

# 2 chains of connected bodies

#group		clump1 id <> 1 9
#group		clump2 id <> 9 18
#group		clump3 id <> 18 27
#group		clump4 id <> 27 36
#group		clump5 id <> 37 45
#group		clump6 id <> 45 54
#group		clump7 id <> 54 63
#group		clump8 id <> 63 72
#group		clump9 id <> 72 81

#fix 1 all poems group clump1 clump2 clump3 clump4
#fix 2 all poems group clump5 clump6 clump7 clump8 clump9

neigh_modify	exclude group clump1 clump1
neigh_modify	exclude group clump2 clump2
neigh_modify	exclude group clump3 clump3
neigh_modify	exclude group clump4 clump4
neigh_modify	exclude group clump5 clump5
neigh_modify	exclude group clump6 clump6
neigh_modify	exclude group clump7 clump7
neigh_modify	exclude group clump8 clump8
neigh_modify	exclude group clump9 clump9

thermo		100

#dump		1 all atom 50 dump.rigid

#dump		2 all image 100 image.*.jpg type type #		axes yes 0.8 0.02 view 60 -30
#dump_modify	2 pad 5

#dump		3 all movie 100 movie.mpg type type #		axes yes 0.8 0.02 view 60 -30
#dump_modify	3 pad 5

timestep 	0.0001
thermo		50
run		10000
Neighbor list info ...
  update every 1 steps, delay 10 steps, check yes
  max neighbors/atom: 2000, page size: 100000
  master list distance cutoff = 2.8
  ghost atom cutoff = 2.8
  binsize = 1.4, bins = 18 18 18
  1 neighbor lists, perpetual/occasional/extra = 1 0 0
  (1) pair lj/cut, perpetual
      attributes: half, newton on
      pair build: half/bin/atomonly/newton
      stencil: half/bin/3d
      bin: standard
Per MPI rank memory allocation (min/avg/max) = 4.194 | 4.210 | 4.320 Mbytes
Step Temp E_pair E_mol TotEng Press 
       0    115.29439    5235.9179            0    5272.2142   -2.7403788 
      50    14910.689    571.71956            0    5265.8253    32.006472 
     100    16298.499    136.64587            0     5267.655    16.444169 
     150    16682.625    17.489211            0    5269.4266    14.900452 
     200    16733.938    1.3732806            0    5269.4649    14.569628 
     250     16738.86  -0.15255089            0    5269.4886    14.496735 
     300    16738.592 -0.055178223            0    5269.5017    14.496353 
     350    16738.498 -0.017446602            0    5269.5097    14.496777 
     400    16738.473 -0.0060111849            0    5269.5133    14.496955 
     450    16738.466 -0.0012714392            0    5269.5157    14.497038 
     500    16738.464 -0.00081068764            0    5269.5158    14.497042 
     550    16738.463 -0.00083204031            0    5269.5154    14.497036 
     600    16738.463 -0.00058355697            0    5269.5156    14.497039 
     650    16738.464 -0.00047227244            0    5269.5159    14.497042 
     700    16738.463            0            0    5269.5162    14.497049 
     750    16738.461            0            0    5269.5153    14.497043 
     800    16738.458            0            0    5269.5145    14.497037 
     850    16738.459            0            0    5269.5148    14.497039 
     900    16738.462            0            0    5269.5159    14.497047 
     950    16738.471 -0.0035324464            0    5269.5152     14.49701 
    1000    16738.595 -0.051134811            0    5269.5066    14.496564 
    1050    16737.367   0.32975604            0    5269.5007    14.526085 
    1100      16737.9   0.16214542            0    5269.5009     14.53231 
    1150    16738.712 -0.089236216            0    5269.5051    14.510228 
    1200    16738.474 -0.0075446386            0    5269.5122    14.510946 
    1250    16738.462            0            0    5269.5158    14.511033 
    1300    16738.458            0            0    5269.5145    14.511023 
    1350    16738.456            0            0     5269.514    14.511019 
    1400    16738.459 -0.00044726195            0    5269.5143    14.511017 
    1450    16738.462 -0.0010964681            0    5269.5149    14.511016 
    1500    16738.463 -0.00057818101            0    5269.5157    14.511027 
    1550    16738.462            0            0    5269.5159    14.511035 
    1600    16738.462            0            0    5269.5159    14.511035 
    1650    16738.463            0            0    5269.5163    14.511038 
    1700    16738.465            0            0    5269.5167    14.511041 
    1750    16738.464            0            0    5269.5164    14.511039 
    1800    16738.461            0            0    5269.5154    14.511031 
    1850    16738.458            0            0    5269.5146    14.511025 
    1900    16738.459            0            0     5269.515    14.511027 
    1950    16738.469 -0.0031786283            0    5269.5148    14.510986 
    2000    16738.497 -0.013283043            0    5269.5135     14.51086 
    2050    16738.561 -0.036642932            0    5269.5103    14.510614 
    2100    16738.637 -0.063255457            0    5269.5077     14.51054 
    2150    16738.611 -0.056038914            0    5269.5067    14.510553 
    2200    16738.561 -0.038434206            0    5269.5086     14.51073 
    2250    16738.519 -0.023711068            0    5269.5102    14.510868 
    2300    16738.491 -0.013243064            0    5269.5116    14.510947 
    2350    16738.467 -0.0045514803            0    5269.5127    14.511035 
    2400    16738.458 -0.00052113835            0    5269.5141    14.511092 
    2450    16738.465 -0.0023223824            0    5269.5145    14.511073 
    2500    16738.473 -0.0051919702            0     5269.514    14.511062 
    2550    16738.585 -0.044741264            0    5269.5099    14.510644 
    2600     16738.43 -9.5425443e-05            0    5269.5057    14.511071 
    2650    16733.259    1.6295787            0    5269.5074    14.592638 
    2700    16738.765  -0.10595327            0    5269.5051    14.500311 
    2750    16733.885    1.4326534            0    5269.5075    14.600818 
    2800    16738.584 -0.046332231            0     5269.508     14.51223 
    2850    16738.485 -0.012619656            0    5269.5103    14.511202 
    2900     16738.46 -0.0026621379            0    5269.5127    14.511366 
    2950    16738.474 -0.0082377994            0    5269.5113    14.511318 
    3000    16738.662 -0.071375799            0    5269.5073    14.510839 
    3050    16711.739    8.3681784            0    5269.4713     14.93185 
    3100    16646.486    28.947822            0    5269.5082     14.54155 
    3150    16739.413  -0.32200576            0    5269.4933    13.624363 
    3200    16732.705    1.7794875            0     5269.483    12.049235 
    3250    16721.411    5.3402348            0    5269.4882    12.143533 
    3300    16736.104   0.72581595            0    5269.4993    12.384009 
    3350    16738.636 -0.062245837            0    5269.5082    12.327141 
    3400    16738.577  -0.04104905            0    5269.5109    12.327186 
    3450    16738.594 -0.046983318            0    5269.5103    12.326828 
    3500    16738.765  -0.10664395            0    5269.5046    12.326594 
    3550    16729.082    2.9441272            0     5269.507     12.45568 
    3600    16730.397    2.5183591            0    5269.4953    12.418509 
    3650    16737.578   0.25489829            0    5269.4925    12.079625 
    3700    16738.745  -0.10887643            0    5269.4962     12.05335 
    3750     16738.69 -0.084813903            0    5269.5027    12.056866 
    3800    16738.599 -0.049979068            0    5269.5089    12.054923 
    3850    16738.505 -0.016009278            0    5269.5132    12.054467 
    3900     16738.48 -0.0058158477            0    5269.5157    12.054547 
    3950     16738.47 -0.0012024473            0     5269.517    12.054609 
    4000    16738.469 -0.00020698631            0    5269.5178    12.054635 
    4050    16738.471            0            0    5269.5186    12.054643 
    4100    16738.466            0            0     5269.517    12.054631 
    4150    16738.455            0            0    5269.5135    12.054604 
    4200    16738.449            0            0    5269.5118     12.05459 
    4250    16738.457            0            0    5269.5141    12.054608 
    4300    16738.467            0            0    5269.5175    12.054635 
    4350    16738.472            0            0     5269.519    12.054646 
    4400     16738.47            0            0    5269.5185    12.054643 
    4450    16738.468            0            0    5269.5176    12.054635 
    4500    16738.467            0            0    5269.5173    12.054633 
    4550    16738.467            0            0    5269.5175    12.054634 
    4600    16738.465            0            0    5269.5169     12.05463 
    4650    16738.461            0            0    5269.5156     12.05462 
    4700    16738.458            0            0    5269.5145    12.054612 
    4750    16738.457            0            0    5269.5142    12.054609 
    4800     16738.46            0            0    5269.5151    12.054616 
    4850    16738.466            0            0    5269.5171    12.054632 
    4900     16738.47            0            0    5269.5184    12.054642 
    4950     16738.47            0            0    5269.5183    12.054641 
    5000    16738.466            0            0    5269.5171    12.054632 
    5050    16738.461            0            0    5269.5155    12.054619 
    5100    16738.457            0            0    5269.5143     12.05461 
    5150    16738.459            0            0     5269.515    12.054615 
    5200    16738.465            0            0    5269.5167    12.054629 
    5250    16738.465            0            0    5269.5166    12.054628 
    5300    16738.459            0            0    5269.5149    12.054614 
    5350    16738.457            0            0    5269.5142    12.054609 
    5400    16738.462            0            0    5269.5159    12.054622 
    5450    16738.468            0            0    5269.5177    12.054636 
    5500    16738.467            0            0    5269.5175    12.054635 
    5550    16738.468 -0.0032102084            0    5269.5145     12.05456 
    5600    16738.518  -0.02252328            0    5269.5108     12.05424 
    5650    16738.629 -0.059057008            0    5269.5094    12.054975 
    5700    16385.168    111.22127            0    5269.5149    25.012324 
    5750    16738.557 -0.031365773            0    5269.5145    12.118099 
    5800    16738.473  -0.00279697            0    5269.5164    12.118495 
    5850    16738.462            0            0    5269.5159    12.118519 
    5900    16738.459            0            0    5269.5149    12.118511 
    5950    16738.462            0            0    5269.5159    12.118518 
    6000    16738.465            0            0    5269.5169    12.118526 
    6050    16738.463            0            0    5269.5162    12.118521 
    6100    16738.461            0            0    5269.5154    12.118515 
    6150    16738.463            0            0     5269.516     12.11852 
    6200    16738.466            0            0    5269.5171    12.118528 
    6250    16738.469            0            0    5269.5181    12.118536 
    6300    16738.472            0            0    5269.5189    12.118542 
    6350    16738.471            0            0    5269.5185    12.118539 
    6400    16738.464            0            0    5269.5166    12.118524 
    6450    16738.457            0            0    5269.5143    12.118506 
    6500    16738.454            0            0    5269.5133    12.118498 
    6550    16738.457            0            0    5269.5143    12.118506 
    6600    16738.464            0            0    5269.5165    12.118524 
    6650    16738.468            0            0    5269.5178    12.118534 
    6700    16738.468            0            0    5269.5176    12.118532 
    6750    16738.467            0            0    5269.5173     12.11853 
    6800    16738.468            0            0    5269.5179    12.118534 
    6850    16738.472            0            0    5269.5188    12.118541 
    6900    16738.471            0            0    5269.5186     12.11854 
    6950    16738.462            0            0    5269.5159    12.118519 
    7000    16738.451            0            0    5269.5123    12.118491 
    7050     16738.45            0            0     5269.512    12.118488 
    7100     16738.46            0            0    5269.5153    12.118514 
    7150    16738.469            0            0    5269.5181    12.118535 
    7200     16738.47            0            0    5269.5184    12.118539 
    7250    16738.468            0            0    5269.5176    12.118532 
    7300    16738.466            0            0    5269.5171    12.118528 
    7350    16738.467            0            0    5269.5174     12.11853 
    7400    16738.468            0            0    5269.5177    12.118533 
    7450    16738.465            0            0    5269.5166    12.118524 
    7500    16738.458            0            0    5269.5146    12.118509 
    7550    16738.454            0            0    5269.5134      12.1185 
    7600    16738.456            0            0     5269.514    12.118504 
    7650    16738.462            0            0    5269.5159    12.118519 
    7700    16738.468            0            0    5269.5179    12.118534 
    7750     16738.47            0            0    5269.5184    12.118538 
    7800    16738.468            0            0    5269.5177    12.118533 
    7850    16738.465            0            0    5269.5166    12.118525 
    7900    16738.461            0            0    5269.5155    12.118516 
    7950    16738.459            0            0    5269.5149    12.118511 
    8000    16738.462            0            0    5269.5158    12.118518 
    8050    16738.465            0            0    5269.5168    12.118525 
    8100    16738.462            0            0    5269.5158    12.118518 
    8150    16738.458            0            0    5269.5146    12.118509 
    8200    16738.461            0            0    5269.5154    12.118515 
    8250    16738.467            0            0    5269.5175    12.118531 
    8300    16738.471            0            0    5269.5186     12.11854 
    8350    16738.467            0            0    5269.5174    12.118531 
    8400    16738.464 -0.0026504634            0    5269.5138     12.11847 
    8450    16738.465 -0.0049062795            0    5269.5117    12.118446 
    8500    16738.469 -0.0053384391            0    5269.5125    12.118468 
    8550    16738.485 -0.0080577571            0    5269.5149    12.118439 
    8600    16738.482 -0.0058356321            0    5269.5163    12.118442 
    8650    16738.465 -0.00022128086            0    5269.5166    12.118515 
    8700    16738.459            0            0    5269.5149    12.118504 
    8750     16738.46            0            0    5269.5151    12.118505 
    8800    16738.465            0            0    5269.5166    12.118517 
    8850    16738.465            0            0    5269.5169    12.118519 
    8900     16738.46            0            0    5269.5153    12.118507 
    8950    16738.458            0            0    5269.5147    12.118502 
    9000    16738.462            0            0    5269.5157     12.11851 
    9050    16738.466            0            0    5269.5172    12.118522 
    9100     16738.47            0            0    5269.5183     12.11853 
    9150    16738.471            0            0    5269.5186    12.118533 
    9200    16738.467            0            0    5269.5174    12.118524 
    9250    16738.461            0            0    5269.5154    12.118508 
    9300    16738.457            0            0    5269.5141    12.118498 
    9350    16738.457            0            0    5269.5143    12.118499 
    9400    16738.466 -0.0035836095            0    5269.5135    12.118458 
    9450    16738.617  -0.05564442            0     5269.509    12.117836 
    9500     16738.76  -0.10336795            0    5269.5062    12.118031 
    9550    16738.065   0.11415519            0    5269.5051    12.132529 
    9600    16738.601 -0.051770997            0    5269.5077    12.117411 
    9650    16738.476 -0.0049606394            0    5269.5152    12.117871 
    9700    16738.473 -0.00079846934            0    5269.5184    12.117914 
    9750    16738.468            0            0    5269.5178    12.117917 
    9800    16738.457            0            0    5269.5144     12.11789 
    9850    16738.449            0            0    5269.5117    12.117869 
    9900    16738.454            0            0    5269.5131     12.11788 
    9950    16738.465            0            0    5269.5167    12.117908 
   10000     16738.47            0            0    5269.5185    12.117922 
Loop time of 0.138767 on 8 procs for 10000 steps with 81 atoms

Performance: 622624.259 tau/day, 72062.993 timesteps/s
99.3% CPU use with 8 MPI tasks x no OpenMP threads

MPI task timing breakdown:
Section |  min time  |  avg time  |  max time  |%varavg| %total
---------------------------------------------------------------
Pair    | 0.00069595 | 0.0011942  | 0.0017898  |   1.1 |  0.86
Neigh   | 0.0027329  | 0.0036136  | 0.0050054  |   1.1 |  2.60
Comm    | 0.062851   | 0.06819    | 0.075021   |   1.7 | 49.14
Output  | 0.002436   | 0.0025599  | 0.0029528  |   0.3 |  1.84
Modify  | 0.05338    | 0.059209   | 0.064604   |   1.5 | 42.67
Other   |            | 0.004001   |            |       |  2.88

Nlocal:        10.1250 ave          28 max           0 min
Histogram: 4 0 0 0 1 1 0 0 0 2
Nghost:        19.2500 ave          34 max           4 min
Histogram: 2 0 0 1 1 0 0 3 0 1
Neighs:         0.00000 ave           0 max           0 min
Histogram: 8 0 0 0 0 0 0 0 0 0

Total # of neighbors = 0
Ave neighs/atom = 0.0000000
Neighbor list builds = 998
Dangerous builds = 997
Total wall time: 0:00:00
