LAMMPS (24 Aug 2020)
# Simple rigid body system

units		lj
atom_style	atomic

pair_style	lj/cut 2.5

read_data	data.rigid
Reading data file ...
  orthogonal box = (-12.000000 -12.000000 -12.000000) to (12.000000 12.000000 12.000000)
  2 by 2 by 2 MPI processor grid
  reading atoms ...
  81 atoms
  read_data CPU = 0.002 seconds

velocity 	all create 100.0 4928459

# unconnected bodies

#group		clump1 id <> 1 9
#group		clump2 id <> 10 18
#group		clump3 id <> 19 27
#group		clump4 id <> 28 36
#group		clump5 id <> 37 45
#group		clump6 id <> 46 54
#group		clump7 id <> 55 63
#group		clump8 id <> 64 72
#group		clump9 id <> 73 81

#fix 1 all rigid group 9 clump1 clump2 clump3 clump4 clump5 #	  	      clump6 clump7 clump8 clump9

# 1 chain of connected bodies

group		clump1 id <> 1 9
9 atoms in group clump1
group		clump2 id <> 9 18
10 atoms in group clump2
group		clump3 id <> 18 27
10 atoms in group clump3
group		clump4 id <> 27 36
10 atoms in group clump4
group		clump5 id <> 36 45
10 atoms in group clump5
group		clump6 id <> 45 54
10 atoms in group clump6
group		clump7 id <> 54 63
10 atoms in group clump7
group		clump8 id <> 63 72
10 atoms in group clump8
group		clump9 id <> 72 81
10 atoms in group clump9

fix 1 all poems group clump1 clump2 clump3 clump4 clump5 	  	      clump6 clump7 clump8 clump9
1 clusters, 9 bodies, 8 joints, 81 atoms

# 2 chains of connected bodies

#group		clump1 id <> 1 9
#group		clump2 id <> 9 18
#group		clump3 id <> 18 27
#group		clump4 id <> 27 36
#group		clump5 id <> 37 45
#group		clump6 id <> 45 54
#group		clump7 id <> 54 63
#group		clump8 id <> 63 72
#group		clump9 id <> 72 81

#fix 1 all poems group clump1 clump2 clump3 clump4
#fix 2 all poems group clump5 clump6 clump7 clump8 clump9

neigh_modify	exclude group clump1 clump1
neigh_modify	exclude group clump2 clump2
neigh_modify	exclude group clump3 clump3
neigh_modify	exclude group clump4 clump4
neigh_modify	exclude group clump5 clump5
neigh_modify	exclude group clump6 clump6
neigh_modify	exclude group clump7 clump7
neigh_modify	exclude group clump8 clump8
neigh_modify	exclude group clump9 clump9

thermo		100

#dump		1 all atom 50 dump.rigid.poems

#dump		2 all image 100 image.*.jpg type type #		axes yes 0.8 0.02 view 60 -30
#dump_modify	2 pad 5

#dump		3 all movie 100 movie.mpg type type #		axes yes 0.8 0.02 view 60 -30
#dump_modify	3 pad 5

timestep 	0.0001
thermo		50
run		10000
Neighbor list info ...
  update every 1 steps, delay 10 steps, check yes
  max neighbors/atom: 2000, page size: 100000
  master list distance cutoff = 2.8
  ghost atom cutoff = 2.8
  binsize = 1.4, bins = 18 18 18
  1 neighbor lists, perpetual/occasional/extra = 1 0 0
  (1) pair lj/cut, perpetual
      attributes: half, newton on
      pair build: half/bin/atomonly/newton
      stencil: half/bin/3d/newton
      bin: standard
Per MPI rank memory allocation (min/avg/max) = 3.507 | 3.523 | 3.632 Mbytes
Step Temp E_pair E_mol TotEng Press 
       0     217.7783    3430.3907            0    3466.6871   -2.7403788 
      50    13679.637    1404.2468            0    3684.1863    12.446066 
     100    16777.225    888.87665            0    3685.0808   -31.828677 
     150    19595.365    418.45042            0    3684.3446    40.709078 
     200    18524.188    596.47273            0    3683.8375   -0.8159371 
     250    21015.789    180.96521            0    3683.5967   -10.042469 
     300    20785.513    219.25314            0    3683.5053    2.6452719 
     350     21072.46     171.2554            0    3683.3321    7.0609024 
     400    19956.414    356.36381            0    3682.4328    19.320259 
     450     20724.42    227.73284            0    3681.8028    8.1259249 
     500    20152.578    322.71466            0    3681.4777    5.4929878 
     550    20017.022    345.29701            0    3681.4673    5.4661666 
     600    17897.743    698.72196            0    3681.6791    3.2854742 
     650    17297.758    796.60256            0    3679.5623    15.191113 
     700    18581.934    584.29715            0    3681.2861    5.1588289 
     750    21774.158    52.821062            0    3681.8474   -10.775664 
     800    21604.055    81.188546            0    3681.8644   -3.2045742 
     850    17821.483    711.53827            0    3681.7854    7.4384281 
     900    21033.292    175.98127            0    3681.5299   -16.345167 
     950    20968.166    186.59847            0    3681.2929    -2.330456 
    1000     20490.66    266.19374            0    3681.3037    11.787982 
    1050    20222.396    310.94072            0      3681.34   -8.3459539 
    1100    21321.687    127.61533            0    3681.2299   -1.2184716 
    1150    20849.582    206.01696            0    3680.9472  -0.86699114 
    1200    21815.003    45.317409            0    3681.1512    1.5988314 
    1250    18655.437    572.41453            0     3681.654    10.064083 
    1300    20780.781    217.36511            0    3680.8286    6.0538605 
    1350    20558.971    254.36489            0    3680.8601   -3.6773865 
    1400     21485.03    99.812839            0    3680.6511   -16.185479 
    1450    21771.107    52.159654            0    3680.6775   -2.4756655 
    1500    21520.949    93.503871            0    3680.3286    2.1023574 
    1550    21351.419    121.68131            0    3680.2511    5.5159873 
    1600    20778.804    216.92191            0    3680.0559    15.089204 
    1650    21477.636    100.21877            0    3679.8247   -1.1045229 
    1700    18501.329    596.48088            0    3680.0357    -15.67981 
    1750    18563.639    587.34838            0    3681.2882    33.532318 
    1800    19110.174    494.82529            0    3679.8543    18.024078 
    1850    21364.177    119.23776            0    3679.9339    2.5290049 
    1900    20146.586    322.15532            0    3679.9197     5.731752 
    1950    20692.674    231.25282            0    3680.0319    4.2978001 
    2000    20943.903    189.11233            0    3679.7629   -22.643709 
    2050    19667.807    401.87152            0    3679.8394    3.6240734 
    2100    20280.099    299.81931            0    3679.8357    7.4803555 
    2150    19181.129    483.64256            0    3680.4974    22.634566 
    2200    21301.226    130.52646            0    3680.7307    4.7071683 
    2250     20484.72    267.00909            0    3681.1291   -8.6587193 
    2300    18647.822     573.1296            0    3681.0999   -5.2545572 
    2350    21515.924    95.213547            0    3681.2009   -9.3883509 
    2400    21462.248      104.233            0    3681.2743    -29.45663 
    2450    20108.291     330.9009            0    3682.2827    35.358278 
    2500    20772.052     220.3862            0    3682.3949    -12.31407 
    2550    20504.934    264.74174            0    3682.2307   -22.735833 
    2600    21462.004    105.27355            0    3682.2742   -10.183546 
    2650    21014.416    179.93268            0    3682.3353    4.9593428 
    2700    18687.135    568.18242            0    3682.7049    21.030084 
    2750    21254.228    139.74495            0    3682.1162   -7.3677513 
    2800      21543.6    91.512774            0    3682.1127   -6.3599976 
    2850    20886.397    200.93609            0    3682.0023   0.81323047 
    2900     19019.04    512.30363            0    3682.1437    12.010901 
    2950      20078.8     335.2719            0    3681.7385   -1.3410357 
    3000    20534.185    259.43595            0    3681.8001    7.1126099 
    3050    19666.915    404.21461            0    3682.0339   -15.127484 
    3100    19609.545    413.66742            0    3681.9249    11.079725 
    3150    20388.017     284.1084            0    3682.1112  -0.98804416 
    3200    18843.018    541.67688            0    3682.1799    15.210531 
    3250    18589.447    583.99713            0    3682.2382    7.9795869 
    3300    19434.205    442.87062            0    3681.9048  -0.39601606 
    3350    15893.738    1034.8707            0    3683.8271   -12.058589 
    3400    19290.375    467.23115            0    3682.2936    -4.712802 
    3450    20689.589    233.76067            0    3682.0255    5.5308866 
    3500    20025.412    344.42565            0    3681.9943     5.237392 
    3550     21370.08     120.4094            0    3682.0895    -6.455307 
    3600    20614.747    246.53556            0    3682.3267    4.7863349 
    3650    19018.816    512.45646            0    3682.2591    3.6932319 
    3700    21623.446    78.544965            0    3682.4527    5.8493233 
    3750      19366.7     455.1293            0    3682.9126    7.2538581 
    3800    21472.818    103.71173            0    3682.5147   -8.0356712 
    3850    20935.136    193.31047            0    3682.4999   -8.8145731 
    3900    18514.891    595.45038            0    3681.2655   -10.130378 
    3950    20858.307    205.71383            0    3682.0983    1.8557528 
    4000    21245.531    141.54072            0    3682.4626   -7.9649464 
    4050    20625.589    244.77168            0    3682.3698   -9.2740943 
    4100    20677.468    236.20817            0    3682.4529    5.0844149 
    4150     21142.73    158.23869            0    3682.0271   0.20451427 
    4200    20139.149    324.73371            0    3681.2585    5.0522771 
    4250    19411.188    447.10474            0    3682.3028    13.186857 
    4300    18793.224    550.42571            0    3682.6297    5.0986418 
    4350    21505.231    98.027007            0    3682.2322   0.93992039 
    4400    18322.181    631.95943            0    3685.6563    17.818562 
    4450    21032.219    177.20022            0    3682.5701   -4.7242513 
    4500    20408.377    280.60084            0     3681.997    0.8463137 
    4550    20581.583    252.33898            0    3682.6029    1.6430451 
    4600     20061.53    338.76342            0    3682.3517   0.37211924 
    4650    20018.623    346.55672            0    3682.9938    8.9175503 
    4700    21263.083    138.99427            0    3682.8414   -3.0886694 
    4750    20783.259     219.4331            0    3683.3097   -15.912347 
    4800    21641.492     77.17975            0     3684.095   -3.2701781 
    4850    20911.663    199.16622            0    3684.4434       9.5691 
    4900    18789.605    552.94787            0    3684.5488   0.13779673 
    4950    21478.754    104.89198            0    3684.6843    -6.509993 
    5000    21367.577    123.27154            0    3684.5344   -3.5542999 
    5050    20946.901    193.32824            0    3684.4784   -4.9562293 
    5100    20173.881    321.09874            0    3683.4122    4.1236899 
    5150    18610.077    582.90106            0    3684.5806   -21.481574 
    5200    20416.407    282.43914            0    3685.1737    10.402835 
    5250    19404.556    451.13984            0    3685.2325    17.375555 
    5300    17493.959     770.6841            0    3686.3439    5.3499208 
    5350    17449.764    776.45443            0    3684.7484    21.074394 
    5400    20902.093     202.9525            0    3686.6347    11.316054 
    5450    21348.804    131.06457            0    3689.1986   -9.0342761 
    5500    21553.206    98.927447            0    3691.1285   -28.290435 
    5550    20428.882    286.61273            0    3691.4263   -43.357798 
    5600    21360.464    131.49844            0    3691.5758  -0.59562411 
    5650    20919.565    204.93229            0    3691.5265   -2.5520518 
    5700    19021.004    521.49479            0    3691.6621    41.443118 
    5750    14990.401    1194.8295            0    3693.2297    64.109682 
    5800    20606.015    257.01276            0    3691.3487   -3.1824386 
    5850    18313.797     639.0102            0    3691.3097    6.8277699 
    5900    21646.104    83.098251            0    3690.7822  -0.98333636 
    5950    19456.214    447.79213            0    3690.4945    3.4889404 
    6000    20290.189    308.70291            0    3690.4011   -4.4778104 
    6050    15487.025    1110.6568            0    3691.8277   -62.741136 
    6100    21277.554    144.02381            0    3690.2828   -14.934007 
    6150    21437.736    117.55287            0    3690.5089   -5.7529628 
    6200    20735.468    234.58698            0    3690.4984   -5.6352658 
    6250     21535.83    101.16667            0    3690.4717    4.4363381 
    6300    19876.953    378.14314            0    3690.9686    11.759932 
    6350    19262.324    479.94413            0    3690.3314    19.402128 
    6400    21345.184     132.5842            0    3690.1149  -0.26241678 
    6450    21317.707    137.07267            0    3690.0238    1.4874277 
    6500    19280.441    476.23645            0    3689.6432    7.3544622 
    6550    19853.644    381.12538            0    3690.0661   -2.6816163 
    6600    21445.677    115.73067            0    3690.0102    2.2803097 
    6650    21202.723    156.13873            0    3689.9259    6.2430922 
    6700    21106.466     172.1925            0    3689.9368   -5.8908947 
    6750    21246.765    148.63914            0    3689.7666   0.45199521 
    6800    19959.155    363.14184            0    3689.6677    6.7025817 
    6850     19166.91     494.6565            0    3689.1416    22.327773 
    6900    21966.093    28.862228            0    3689.8778   -5.5720474 
    6950     19312.79    471.42421            0    3690.2226    11.077267 
    7000    20636.571    250.61324            0    3690.0418   -2.1655714 
    7050    20515.978    270.55195            0    3689.8817   -4.9808574 
    7100    16769.801    892.80323            0    3687.7701   -14.700993 
    7150    21360.068    129.72837            0    3689.7398   -4.2655703 
    7200    19026.871    518.66526            0    3689.8104    6.8883836 
    7250    21172.764    160.66483            0    3689.4589   -10.225557 
    7300    19777.598    393.01332            0    3689.2796    2.6984815 
    7350    19697.876    405.57508            0    3688.5545    4.9596815 
    7400     16519.95    936.20974            0    3689.5347     21.96778 
    7450    21122.068    168.63167            0    3688.9764   0.87592396 
    7500    20875.844    209.81734            0    3689.1247   -3.8940326 
    7550     20913.03     203.5145            0    3689.0195   -4.2642057 
    7600    21388.285    125.37723            0    3690.0914   -1.7732559 
    7650     18516.81    604.79076            0    3690.9258    20.968801 
    7700    21221.573    153.47362            0    3690.4025   0.03546767 
    7750    18986.169    526.59779            0    3690.9593    2.9893504 
    7800    20490.509    276.40398            0    3691.4888    5.6779218 
    7850    19672.614    412.93167            0    3691.7006   -8.7038798 
    7900    20262.332    315.23596            0    3692.2912     7.020532 
    7950    21494.457     109.4196            0     3691.829   -3.0410545 
    8000    21911.822    39.637537            0    3691.6079    1.3191482 
    8050    21082.528    177.56897            0    3691.3236  -0.32430346 
    8100     19399.98    457.69461            0    3691.0246   -14.861551 
    8150    21554.313    98.328587            0     3690.714   -2.9319684 
    8200     20344.81    299.81088            0    3690.6126    1.6591798 
    8250     20143.54    333.18549            0    3690.4422   -1.2954163 
    8300     20214.42    321.19038            0    3690.2604   -8.8412458 
    8350    19606.473      422.695            0    3690.4405    10.363132 
    8400    21835.297     51.24448            0    3690.4606    -2.299835 
    8450    19756.479    397.63123            0    3690.3777    8.3342998 
    8500    21049.144    182.32762            0    3690.5184   -1.5150956 
    8550    21234.226    151.94555            0    3690.9832   -3.6601419 
    8600    21335.954    135.08577            0    3691.0781   -3.3999532 
    8650    20975.675     195.1421            0    3691.0879   -1.8256321 
    8700    21088.421    176.59522            0    3691.3321    2.5114026 
    8750    20551.118    266.40996            0    3691.5963    16.683205 
    8800    21875.776    45.452001            0    3691.4146   -0.1678221 
    8850    21528.196    103.23448            0    3691.2672    2.4543942 
    8900    21139.957    167.76977            0    3691.0959   -11.570851 
    8950     21074.42    177.93431            0    3690.3376   -2.8420802 
    9000    21319.349    136.72534            0    3689.9502   0.90794975 
    9050    20605.501    255.49181            0     3689.742    1.9281364 
    9100    21269.779    144.81971            0    3689.7828    2.2814218 
    9150    21924.006    35.825827            0    3689.8268   0.61692489 
    9200    21375.793    127.23858            0    3689.8707  -0.80787284 
    9250     20546.87    265.52412            0    3690.0025     5.529985 
    9300    21540.103    99.900994            0    3689.9181   0.83067878 
    9350    20541.058    266.42914            0    3689.9389  -0.53339465 
    9400    21673.649    77.617186            0     3689.892   -2.2710434 
    9450    21790.577    57.949686            0    3689.7125   -2.8374103 
    9500    20651.787      246.618            0    3688.5825   -4.4967756 
    9550    21070.041    177.86098            0    3689.5344    4.2099636 
    9600    20435.047    283.56858            0    3689.4098    6.1733348 
    9650    21062.483    179.11047            0    3689.5243  -0.22072266 
    9700     18670.51    576.89507            0    3688.6467     18.41478 
    9750    21185.592    158.41561            0    3689.3476  0.082100161 
    9800    21538.788    99.540278            0    3689.3384    3.0943143 
    9850    21590.941      90.6433            0    3689.1335    7.4640783 
    9900    21757.847    62.934867            0    3689.2427    4.5262877 
    9950    21417.736    119.80364            0    3689.4263  -0.33004522 
   10000     20839.26    216.24935            0    3689.4593   0.65769009 
Loop time of 13.0165 on 8 procs for 10000 steps with 81 atoms

Performance: 6637.722 tau/day, 768.255 timesteps/s
99.9% CPU use with 8 MPI tasks x no OpenMP threads

MPI task timing breakdown:
Section |  min time  |  avg time  |  max time  |%varavg| %total
---------------------------------------------------------------
Pair    | 0.0012029  | 0.020438   | 0.0867     |  19.3 |  0.16
Neigh   | 0.0039855  | 0.017057   | 0.059815   |  13.7 |  0.13
Comm    | 0.49775    | 1.4004     | 2.1273     |  37.3 | 10.76
Output  | 0.014445   | 0.017891   | 0.020953   |   1.3 |  0.14
Modify  | 10.42      | 11.291     | 12.309     |  15.1 | 86.75
Other   |            | 0.2694     |            |       |  2.07

Nlocal:        10.1250 ave          56 max           0 min
Histogram: 5 1 0 1 0 0 0 0 0 1
Nghost:        20.6250 ave          55 max           0 min
Histogram: 4 0 0 0 1 0 0 2 0 1
Neighs:        118.625 ave         747 max           0 min
Histogram: 6 1 0 0 0 0 0 0 0 1

Total # of neighbors = 949
Ave neighs/atom = 11.716049
Neighbor list builds = 992
Dangerous builds = 940

Please see the log.cite file for references relevant to this simulation

Total wall time: 0:00:13
