LAMMPS (27 Oct 2021)
#Pour composite granular particles on flat wall

newton		on
atom_style	sphere
atom_modify	map array sort 0 0

thermo_modify	flush yes
units 		si

variable	minrad equal 0.5
variable	maxrad equal 1.4

variable 	skin equal 0.3*${maxrad}
variable 	skin equal 0.3*1.4

boundary	p p f
region		reg block 0 20 0 20 0 200 units box
create_box	1 reg
Created orthogonal box = (0.0000000 0.0000000 0.0000000) to (20.000000 20.000000 200.00000)
  1 by 1 by 8 MPI processor grid

fix             prop all property/atom mol ghost yes

variable	dumpfreq equal 1000
variable	logfreq equal 1000

pair_style	gran/hooke/history 4e5 NULL 1e2 NULL 0.5 0
pair_coeff	* *

timestep 	0.0001

group		particles type 1
0 atoms in group particles
atom_modify     first particles

neighbor        ${skin} bin
neighbor        0.42 bin
group		rigid type 1
0 atoms in group rigid
neigh_modify	every 1 delay 0 check yes exclude molecule/intra all

thermo 		${logfreq}
thermo 		1000
thermo_style	custom step cpu atoms ke
WARNING: New thermo_style command, previous thermo_modify settings will be lost (src/output.cpp:689)
thermo_modify	flush yes lost warn

comm_modify	vel yes cutoff 3

molecule	mymol molecule.data
Read molecule template mymol:
  1 molecules
  0 fragments
  5 atoms with max type 1
  0 bonds with max type 0
  0 angles with max type 0
  0 dihedrals with max type 0
  0 impropers with max type 0
region		pourreg block 5 15 5 15 80 100 side in units box

#Note: in versions prior to 1/2020, the 'disable' keyword to fix/gravity
# and the 'gravity' keyword to fix rigid/small were not available.
# These settings produce undesirable behavior, where gravity can induce
# torque on rigid bodies.
#fix		gravfix all gravity 9.8 vector 0 0 -1 #disable
#fix		rigidfix all rigid/small molecule mol mymol #gravity gravfix

#The correct behavior is recovered with the following settings:
fix		gravfix all gravity 9.8 vector 0 0 -1 disable
fix		rigidfix all rigid/small molecule mol mymol gravity gravfix
  create bodies CPU = 0.000 seconds
  0 rigid bodies with 0 atoms
  1.2000000 = max distance from body owner to body atom

fix		pourfix all pour 5 0 1234 region pourreg mol mymol rigid rigidfix
Particle insertion: 15 every 20203 steps, 5 by step 1

fix		zwall all wall/gran hooke/history 4000.0 NULL 100.0 NULL 0.5 0 zplane 0.1 NULL

#dump		1 all custom 1000 molecule_pour.dump id type mass radius x y z fx fy fz

run		100000
Neighbor list info ...
  update every 1 steps, delay 0 steps, check yes
  max neighbors/atom: 2000, page size: 100000
  master list distance cutoff = 1.62
  ghost atom cutoff = 3
  binsize = 0.81, bins = 25 25 247
  1 neighbor lists, perpetual/occasional/extra = 1 0 0
  (1) pair gran/hooke/history, perpetual
      attributes: half, newton on, size, history
      pair build: half/size/bin/newton
      stencil: half/bin/3d
      bin: standard
Per MPI rank memory allocation (min/avg/max) = 5.953 | 5.953 | 5.953 Mbytes
Step CPU Atoms KinEng 
       0            0        0           -0 
    1000  0.006712171       25           -0 
    2000  0.011240886       25           -0 
    3000  0.014800771       25           -0 
    4000  0.020552074       25           -0 
    5000  0.028804752       25           -0 
    6000  0.037432601       25           -0 
    7000  0.043931384       25           -0 
    8000  0.047961308       25           -0 
    9000  0.051970364       25           -0 
   10000  0.055992278       25           -0 
   11000  0.060018272       25           -0 
   12000  0.064037068       25           -0 
   13000  0.068159322       25           -0 
   14000  0.074200255       25           -0 
   15000  0.082445963       25           -0 
   16000  0.089162635       25           -0 
   17000   0.09300488       25           -0 
   18000  0.096174696       25           -0 
   19000  0.099236282       25           -0 
   20000   0.10229027       25           -0 
   21000   0.10653448       25           -0 
   22000   0.11386537       25           -0 
   23000   0.11915554       25           -0 
   24000   0.12220288       25           -0 
   25000   0.12715518       25           -0 
   26000   0.13274071       25           -0 
   27000   0.13614619       25           -0 
   28000   0.13926778       25           -0 
   29000   0.14244159       25           -0 
   30000   0.14556426       25           -0 
   31000   0.14870272       25           -0 
   32000    0.1530992       25           -0 
   33000    0.1591743       25           -0 
   34000    0.1632105       25           -0 
   35000   0.16693208       25           -0 
   36000   0.17066901       25           -0 
   37000   0.17448954       25           -0 
   38000   0.17829374       25           -0 
   39000   0.18197439       25           -0 
   40000   0.18553103       25           -0 
   41000   0.18902736       25           -0 
   42000   0.19248933       25           -0 
   43000   0.19595433       25           -0 
   44000   0.19941197       25           -0 
   45000   0.20284311       25           -0 
   46000   0.20630528       25           -0 
   47000   0.20980675       25           -0 
   48000   0.21326308       25           -0 
   49000    0.2167474       25           -0 
   50000   0.22023935       25           -0 
   51000   0.22370791       25           -0 
   52000   0.22715505       25           -0 
   53000   0.23057948       25           -0 
   54000   0.23401532       25           -0 
   55000   0.23744948       25           -0 
   56000   0.24086628       25           -0 
   57000   0.24426995       25           -0 
   58000   0.24777319       25           -0 
   59000   0.25130573       25           -0 
   60000   0.25484671       25           -0 
   61000   0.25836749       25           -0 
   62000   0.26188916       25           -0 
   63000   0.26542754       25           -0 
   64000   0.26902356       25           -0 
   65000   0.27258584       25           -0 
   66000   0.27613646       25           -0 
   67000   0.27970255       25           -0 
   68000   0.28328073       25           -0 
   69000   0.28684345       25           -0 
   70000    0.2904046       25           -0 
   71000   0.29393329       25           -0 
   72000   0.29748368       25           -0 
   73000   0.30102782       25           -0 
   74000   0.30456147       25           -0 
   75000   0.30810074       25           -0 
   76000   0.31164533       25           -0 
   77000   0.31519942       25           -0 
   78000   0.31875787       25           -0 
   79000   0.32231203       25           -0 
   80000   0.32586108       25           -0 
   81000   0.32938888       25           -0 
   82000   0.33294779       25           -0 
   83000   0.33649941       25           -0 
   84000   0.34002561       25           -0 
   85000   0.34358226       25           -0 
   86000   0.34714643       25           -0 
   87000   0.35067796       25           -0 
   88000   0.35426064       25           -0 
   89000   0.35780046       25           -0 
   90000   0.36133733       25           -0 
   91000   0.36487812       25           -0 
   92000   0.36846151       25           -0 
   93000   0.37199921       25           -0 
   94000   0.37553536       25           -0 
   95000   0.37912216       25           -0 
   96000   0.38269692       25           -0 
   97000   0.38625985       25           -0 
   98000   0.38984855       25           -0 
   99000   0.39341551       25           -0 
  100000   0.39698367       25           -0 
Loop time of 0.396995 on 8 procs for 100000 steps with 25 atoms

99.8% CPU use with 8 MPI tasks x no OpenMP threads

MPI task timing breakdown:
Section |  min time  |  avg time  |  max time  |%varavg| %total
---------------------------------------------------------------
Pair    | 0.003462   | 0.0050021  | 0.010174   |   2.9 |  1.26
Neigh   | 0.0083437  | 0.0097765  | 0.011627   |   1.4 |  2.46
Comm    | 0.02609    | 0.034583   | 0.044984   |   4.1 |  8.71
Output  | 0.00072703 | 0.00081327 | 0.0012219  |   0.0 |  0.20
Modify  | 0.025435   | 0.054578   | 0.15256    |  17.1 | 13.75
Other   |            | 0.2922     |            |       | 73.61

Nlocal:        3.12500 ave          25 max           0 min
Histogram: 7 0 0 0 0 0 0 0 0 1
Nghost:       0.625000 ave           5 max           0 min
Histogram: 7 0 0 0 0 0 0 0 0 1
Neighs:         0.00000 ave           0 max           0 min
Histogram: 8 0 0 0 0 0 0 0 0 0

Total # of neighbors = 0
Ave neighs/atom = 0.0000000
Neighbor list builds = 695
Dangerous builds = 0

Total wall time: 0:00:00
