LAMMPS (15 Sep 2022)
# Simple rigid body system

units		lj
atom_style	atomic

pair_style	lj/cut 2.5

read_data	data.rigid
Reading data file ...
  orthogonal box = (-12 -12 -12) to (12 12 12)
  2 by 2 by 2 MPI processor grid
  reading atoms ...
  81 atoms
  read_data CPU = 0.093 seconds

velocity 	all create 100.0 4928459

# unconnected bodies

#group		clump1 id <> 1 9
#group		clump2 id <> 10 18
#group		clump3 id <> 19 27
#group		clump4 id <> 28 36
#group		clump5 id <> 37 45
#group		clump6 id <> 46 54
#group		clump7 id <> 55 63
#group		clump8 id <> 64 72
#group		clump9 id <> 73 81

#fix 1 all rigid group 9 clump1 clump2 clump3 clump4 clump5 #	  	      clump6 clump7 clump8 clump9

# 1 chain of connected bodies

group		clump1 id <> 1 9
9 atoms in group clump1
group		clump2 id <> 9 18
10 atoms in group clump2
group		clump3 id <> 18 27
10 atoms in group clump3
group		clump4 id <> 27 36
10 atoms in group clump4
group		clump5 id <> 36 45
10 atoms in group clump5
group		clump6 id <> 45 54
10 atoms in group clump6
group		clump7 id <> 54 63
10 atoms in group clump7
group		clump8 id <> 63 72
10 atoms in group clump8
group		clump9 id <> 72 81
10 atoms in group clump9

fix 1 all poems group clump1 clump2 clump3 clump4 clump5 	  	      clump6 clump7 clump8 clump9
1 clusters, 9 bodies, 8 joints, 81 atoms

# 2 chains of connected bodies

#group		clump1 id <> 1 9
#group		clump2 id <> 9 18
#group		clump3 id <> 18 27
#group		clump4 id <> 27 36
#group		clump5 id <> 37 45
#group		clump6 id <> 45 54
#group		clump7 id <> 54 63
#group		clump8 id <> 63 72
#group		clump9 id <> 72 81

#fix 1 all poems group clump1 clump2 clump3 clump4
#fix 2 all poems group clump5 clump6 clump7 clump8 clump9

neigh_modify	exclude group clump1 clump1
neigh_modify	exclude group clump2 clump2
neigh_modify	exclude group clump3 clump3
neigh_modify	exclude group clump4 clump4
neigh_modify	exclude group clump5 clump5
neigh_modify	exclude group clump6 clump6
neigh_modify	exclude group clump7 clump7
neigh_modify	exclude group clump8 clump8
neigh_modify	exclude group clump9 clump9

thermo		100

#dump		1 all atom 50 dump.rigid.poems

#dump		2 all image 100 image.*.jpg type type #		axes yes 0.8 0.02 view 60 -30
#dump_modify	2 pad 5

#dump		3 all movie 100 movie.mpg type type #		axes yes 0.8 0.02 view 60 -30
#dump_modify	3 pad 5

timestep 	0.0001
thermo		50
run		10000

CITE-CITE-CITE-CITE-CITE-CITE-CITE-CITE-CITE-CITE-CITE-CITE-CITE

Your simulation uses code contributions which should be cited:

- fix poems command: doi:10.1016/j.ijnonlinmec.2008.04.003

@Article{Mukherjee08,
 author = {R. M. Mukherjee and P. S. Crozier and S. J. Plimpton and K. S. Anderson},
 title = {Substructured Molecular Dynamics Using Multibody Dynamics Algorithms},
 journal = {Intl.\ J.\ Non-Linear Mechanics},
 year =    2008,
 volume =  43,
 number =  10,
 pages =   {1040--1055}
}

CITE-CITE-CITE-CITE-CITE-CITE-CITE-CITE-CITE-CITE-CITE-CITE-CITE

Generated 0 of 0 mixed pair_coeff terms from geometric mixing rule
Neighbor list info ...
  update: every = 1 steps, delay = 0 steps, check = yes
  max neighbors/atom: 2000, page size: 100000
  master list distance cutoff = 2.8
  ghost atom cutoff = 2.8
  binsize = 1.4, bins = 18 18 18
  1 neighbor lists, perpetual/occasional/extra = 1 0 0
  (1) pair lj/cut, perpetual
      attributes: half, newton on
      pair build: half/bin/atomonly/newton
      stencil: half/bin/3d
      bin: standard
Per MPI rank memory allocation (min/avg/max) = 3.507 | 3.523 | 3.632 Mbytes
   Step          Temp          E_pair         E_mol          TotEng         Press     
         0   217.7783       3430.3907      0              3466.6871     -2.7403788    
        50   13679.637      1404.2468      0              3684.1863      12.446066    
       100   16777.225      888.87665      0              3685.0808     -31.828677    
       150   19595.365      418.45042      0              3684.3446      40.709078    
       200   18524.188      596.47273      0              3683.8375     -0.8159371    
       250   21015.789      180.96521      0              3683.5967     -10.042469    
       300   20785.513      219.25314      0              3683.5053      2.6452719    
       350   21072.46       171.2554       0              3683.3321      7.0609024    
       400   19956.414      356.36381      0              3682.4328      19.320259    
       450   20724.42       227.73284      0              3681.8028      8.1259249    
       500   20152.578      322.71466      0              3681.4777      5.4929878    
       550   20017.022      345.29701      0              3681.4673      5.4661666    
       600   17897.743      698.72196      0              3681.6791      3.2854742    
       650   17297.758      796.60256      0              3679.5623      15.191113    
       700   18581.934      584.29715      0              3681.2861      5.1588289    
       750   21774.158      52.821062      0              3681.8474     -10.775664    
       800   21604.055      81.188546      0              3681.8644     -3.2045742    
       850   17821.483      711.53827      0              3681.7854      7.438428     
       900   21033.292      175.98127      0              3681.5299     -16.345167    
       950   20968.166      186.59847      0              3681.2929     -2.330456     
      1000   20490.66       266.19374      0              3681.3037      11.787982    
      1050   20222.396      310.94072      0              3681.34       -8.3459539    
      1100   21321.687      127.61533      0              3681.2299     -1.2184716    
      1150   20849.582      206.01696      0              3680.9472     -0.86699118   
      1200   21815.003      45.317409      0              3681.1512      1.5988314    
      1250   18655.437      572.41453      0              3681.654       10.064083    
      1300   20780.781      217.36511      0              3680.8286      6.0538606    
      1350   20558.971      254.36489      0              3680.8601     -3.677387     
      1400   21485.029      99.812847      0              3680.6511     -16.185479    
      1450   21771.107      52.159653      0              3680.6775     -2.4756655    
      1500   21520.949      93.503875      0              3680.3286      2.1023574    
      1550   21351.419      121.68131      0              3680.2511      5.5159877    
      1600   20778.804      216.92191      0              3680.0559      15.089203    
      1650   21477.636      100.21874      0              3679.8247     -1.104527     
      1700   18501.33       596.48072      0              3680.0357     -15.679799    
      1750   18563.639      587.34831      0              3681.2882      33.53231     
      1800   19110.175      494.82517      0              3679.8543      18.024076    
      1850   21364.178      119.23761      0              3679.9339      2.5290141    
      1900   20146.589      322.15495      0              3679.9197      5.7317233    
      1950   20692.675      231.25273      0              3680.0319      4.2978006    
      2000   20943.903      189.11242      0              3679.7629     -22.643827    
      2050   19667.826      401.86839      0              3679.8394      3.6241812    
      2100   20280.127      299.81459      0              3679.8357      7.4803999    
      2150   19181.197      483.63132      0              3680.4975      22.633385    
      2200   21301.139      130.54094      0              3680.7309      4.7074308    
      2250   20484.894      266.9802       0              3681.1292     -8.6577151    
      2300   18648.221      573.06319      0              3681.1001     -5.2552219    
      2350   21515.733      95.245468      0              3681.201      -9.3863044    
      2400   21462.573      104.17893      0              3681.2745     -29.465069    
      2450   20107.666      331.00554      0              3682.2831      35.38819     
      2500   20771.456      220.48596      0              3682.3954     -12.326088    
      2550   20499.443      265.65907      0              3682.2329     -22.712065    
      2600   21462.145      105.25059      0              3682.2747     -10.175199    
      2650   21003.377      181.77621      0              3682.339       4.9512079    
      2700   18671.267      570.83167      0              3682.7096      21.225104    
      2750   21257.668      139.1815       0              3682.1261     -7.6123362    
      2800   21561.254      88.577439      0              3682.1197     -6.2248161    
      2850   20858.526      205.57824      0              3681.9992      0.37524422   
      2900   19560.007      422.01468      0              3682.0158      12.243647    
      2950   19588.208      417.19717      0              3681.8985     -0.67252825   
      3000   19568.581      419.82417      0              3681.2544      5.4981597    
      3050   19080.506      502.00733      0              3682.0916     -6.2372625    
      3100   18197.464      649.17399      0              3682.0846      10.625349    
      3150   20295.144      299.42668      0              3681.9508     -3.0523224    
      3200   19717.47       395.79071      0              3682.0357      12.524268    
      3250   20624.136      244.56539      0              3681.9213      7.6129198    
      3300   16689.191      902.95309      0              3684.4849      44.94119     
      3350   15276.193      1137.556       0              3683.5882      32.68019     
      3400   20544.532      256.16117      0              3680.2498      2.3551533    
      3450   20712.295      229.82548      0              3681.8747      8.9724205    
      3500   20306.973      296.88582      0              3681.3814     -10.545237    
      3550   18399.84       615.33055      0              3681.9705     -4.7337625    
      3600   21334.995      126.06388      0              3681.8964     -8.1229139    
      3650   19005.207      514.10467      0              3681.6392      8.4591725    
      3700   20924.11       194.25355      0              3681.6053      5.4026595    
      3750   21466.239      103.91687      0              3681.6234     -7.6550449    
      3800   19953.166      356.73556      0              3682.2632      5.2605041    
      3850   19080.453      501.29596      0              3681.3715     -2.7632031    
      3900   20833.534      209.27735      0              3681.5331     -7.4109059    
      3950   19869.323      370.80363      0              3682.3575     -1.960973     
      4000   20262.467      305.59605      0              3682.6739      1.8583238    
      4050   18811.166      548.14578      0              3683.3402     -3.5125819    
      4100   21325.729      129.2822       0              3683.5704     -4.8267238    
      4150   21343.244      126.63391      0              3683.8412      0.93567087   
      4200   21446.135      109.39813      0              3683.7539     -1.4385111    
      4250   18459.748      606.8907       0              3683.5154     -15.16001     
      4300   19435.915      445.05092      0              3684.3701     -0.41965973   
      4350   19072.296      505.98176      0              3684.6977      4.6751942    
      4400   21289.533      136.4749       0              3684.7303     -4.380171     
      4450   18933.674      528.76533      0              3684.3776      14.93763     
      4500   19478.682      438.8034       0              3685.2504      10.193844    
      4550   21186.526      153.86752      0              3684.9552      1.4641197    
      4600   17380.109      789.74712      0              3686.432      -29.25764     
      4650   19655.311      409.33853      0              3685.2236      5.6575563    
      4700   20166.481      324.06522      0              3685.1455     -2.3531524    
      4750   17667.522      741.25042      0              3685.8375      16.386298    
      4800   19682.981      404.69097      0              3685.1879     -16.025584    
      4850   19926.997      362.84822      0              3684.0144      5.4545464    
      4900   19734.323      395.72966      0              3684.7834      2.8263544    
      4950   17787.364      720.33091      0              3684.8916     -8.1394995    
      5000   17313.516      798.70299      0              3684.289       5.1102626    
      5050   15123.683      1164.4847      0              3685.0986      6.4652212    
      5100   19535.782      428.6498       0              3684.6134      5.3746861    
      5150   19497.794      434.17565      0              3683.8079      12.74873     
      5200   18752.634      559.04663      0              3684.4857      17.286615    
      5250   18316.445      632.49743      0              3685.2383      4.7610881    
      5300   19225.263      481.07183      0              3685.2823      14.381283    
      5350   20160.511      324.74828      0              3684.8335     -2.5998574    
      5400   19798.923      385.44519      0              3685.2656     -15.108067    
      5450   19457.858      442.3407       0              3685.317      -10.79576     
      5500   20054.198      343.11006      0              3685.4764     -1.1701534    
      5550   19973.622      356.39536      0              3685.3324      7.4257125    
      5600   20987.784      187.42126      0              3685.3852     -5.2079606    
      5650   19128.948      497.36299      0              3685.5209      8.813589     
      5700   20555.047      259.64362      0              3685.4848      0.66850095   
      5750   18662.427      575.19882      0              3685.6033      0.59393461   
      5800   19677.299      406.2415       0              3685.7913     -2.6687585    
      5850   21457.207      109.55731      0              3685.7584     -1.6897837    
      5900   21261.669      142.38045      0              3685.992      -14.894055    
      5950   21153.315      160.52543      0              3686.078      -2.3644132    
      6000   21892.76       37.491298      0              3686.2847     -2.4140369    
      6050   20518.423      266.48992      0              3686.2271      8.501735     
      6100   21433.032      113.90525      0              3686.0773      0.90959711   
      6150   20740.85       229.08901      0              3685.8974     -1.6782014    
      6200   20776.846      223.3122       0              3686.1199     -2.0161188    
      6250   21804.204      52.064925      0              3686.099      -30.089023    
      6300   21497.041      103.24317      0              3686.0833     -7.348996     
      6350   18814.445      550.50658      0              3686.2475      22.580438    
      6400   21264.407      142.11289      0              3686.1807     -11.781682    
      6450   15154.387      1162.1775      0              3687.9087      36.123513    
      6500   20365.14       291.92952      0              3686.1195     -6.9040011    
      6550   20186.394      321.34069      0              3685.7396      6.9241124    
      6600   18768.189      558.14528      0              3686.1767      1.3933254    
      6650   18781.502      556.41851      0              3686.6688     -15.378979    
      6700   20591.611      254.4835       0              3686.4187     -4.8144303    
      6750   20859.522      209.76788      0              3686.3549     -3.6047617    
      6800   21817.949      50.131611      0              3686.4565     -0.95489604   
      6850   19641.231      412.19639      0              3685.7349      0.070470073  
      6900   20231.57       313.80818      0              3685.7366      8.1455723    
      6950   18451.739      611.77048      0              3687.0604      24.361259    
      7000   21194.512      154.09566      0              3686.5144      4.7103167    
      7050   21559.582      93.204578      0              3686.4682     -0.30092767   
      7100   21637.255      80.17646       0              3686.3857     -5.996107     
      7150   21012.186      184.26299      0              3686.2939     -0.30466634   
      7200   16106.962      1001.7634      0              3686.257       26.803613    
      7250   19861.154      376.05916      0              3686.2514      11.409839    
      7300   21543.119      95.913248      0              3686.4331     -9.8484491    
      7350   18385.93       622.77201      0              3687.0936     -58.02148     
      7400   20180.598      323.04158      0              3686.4746     -3.6888474    
      7450   20990.247      188.49923      0              3686.8738     -8.5879438    
      7500   20108.791      335.43286      0              3686.8981      3.5229519    
      7550   15305.243      1137.1671      0              3688.0409      24.439243    
      7600   19986.921      354.33677      0              3685.4903      16.212065    
      7650   19469.439      441.38773      0              3686.2943     -1.3789149    
      7700   19933.459      364.06723      0              3686.3105      1.7045215    
      7750   21786.616      55.7483        0              3686.8509     -5.6190341    
      7800   18624.738      583.24017      0              3687.3631     -3.4453091    
      7850   21856.623      44.315905      0              3687.0864     -0.32523326   
      7900   19140.185      495.52489      0              3685.5556      10.370097    
      7950   18276.456      641.04765      0              3687.1237     -21.821322    
      8000   20964.904      192.79293      0              3686.9435     -1.9553516    
      8050   20893.055      204.79761      0              3686.9735     -3.7884011    
      8100   16889.826      870.83788      0              3685.8089      30.824118    
      8150   17986.941      689.54964      0              3687.3731     -6.2714221    
      8200   21023.347      183.55212      0              3687.4433     -1.6304383    
      8250   19187.946      489.38826      0              3687.3793      3.9895347    
      8300   21294.225      138.43942      0              3687.4769     -3.8138224    
      8350   20785.01       223.26456      0              3687.433      -6.3346843    
      8400   19383.914      456.97544      0              3687.6278     -3.1434605    
      8450   18199.734      653.85684      0              3687.1459      9.2316322    
      8500   20195.338      321.46657      0              3687.3562     -7.1648993    
      8550   18288.831      638.62647      0              3686.765       29.579565    
      8600   18706.027      569.97236      0              3687.6435      0.34532796   
      8650   19760.684      393.70572      0              3687.1531     -1.2647862    
      8700   21124.175      166.27472      0              3686.9706     -9.5193168    
      8750   19437.713      447.46115      0              3687.08        1.6573029    
      8800   19980.504      356.51072      0              3686.5947      7.0428401    
      8850   19259.63       477.2067       0              3687.145      -6.8545366    
      8900   21193.385      154.60649      0              3686.8373     -3.9641462    
      8950   20796.114      220.90487      0              3686.9238     -0.4433844    
      9000   18285.341      639.42972      0              3686.9866      2.0489538    
      9050   19865.572      376.09213      0              3687.0208      5.5271077    
      9100   21243.952      145.57791      0              3686.2365      0.014185078  
      9150   21804.169      52.355218      0              3686.3834     -4.235766     
      9200   20355.576      293.36549      0              3685.9616      4.1619031    
      9250   21502.445      102.59286      0              3686.3338      1.9000465    
      9300   18994.414      520.37736      0              3686.113      -1.8570027    
      9350   21795.519      54.080363      0              3686.6668     -3.029651     
      9400   20710.186      234.67231      0              3686.37       -6.2765529    
      9450   21629.812      81.697753      0              3686.6665      3.3553375    
      9500   20763.059      226.03253      0              3686.5424     -3.1465761    
      9550   20689.532      238.73846      0              3686.9937      5.3545764    
      9600   17386.857      789.11876      0              3686.9282      29.100507    
      9650   19414.776      451.68418      0              3687.4802     -6.4322187    
      9700   20983.751      190.27685      0              3687.5686      3.7732254    
      9750   20833.246      215.55397      0              3687.7616     -1.3138891    
      9800   20017.91       351.68767      0              3688.006      -7.8701036    
      9850   18879.775      541.80498      0              3688.4341     -16.41356     
      9900   21190.933      156.28319      0              3688.1053     -11.798662    
      9950   19498.597      438.1337       0              3687.8998      17.460616    
     10000   21272.119      142.78447      0              3688.1377     -1.575559     
Loop time of 33.308 on 8 procs for 10000 steps with 81 atoms

Performance: 2593.972 tau/day, 300.228 timesteps/s, 24.318 katom-step/s
93.9% CPU use with 8 MPI tasks x no OpenMP threads

MPI task timing breakdown:
Section |  min time  |  avg time  |  max time  |%varavg| %total
---------------------------------------------------------------
Pair    | 0.0087193  | 0.040984   | 0.15784    |  24.2 |  0.12
Neigh   | 0.0094959  | 0.030247   | 0.10077    |  17.2 |  0.09
Comm    | 1.7918     | 2.4482     | 3.2215     |  28.7 |  7.35
Output  | 0.11055    | 0.14557    | 0.19875    |   6.3 |  0.44
Modify  | 18.655     | 19.619     | 20.108     |  12.7 | 58.90
Other   |            | 11.02      |            |       | 33.10

Nlocal:         10.125 ave          60 max           0 min
Histogram: 6 0 1 0 0 0 0 0 0 1
Nghost:         20.875 ave          70 max           2 min
Histogram: 4 0 1 1 0 1 0 0 0 1
Neighs:        102.875 ave         696 max           0 min
Histogram: 6 1 0 0 0 0 0 0 0 1

Total # of neighbors = 823
Ave neighs/atom = 10.160494
Neighbor list builds = 1147
Dangerous builds = 0
Total wall time: 0:00:33
