LAMMPS (15 Sep 2022)
# Simple rigid body system

units		lj
atom_style	atomic

pair_style	lj/cut 2.5

read_data	data.rigid
Reading data file ...
  orthogonal box = (-12 -12 -12) to (12 12 12)
  2 by 2 by 2 MPI processor grid
  reading atoms ...
  81 atoms
  read_data CPU = 0.046 seconds

velocity 	all create 100.0 4928459

# unconnected bodies

#group		clump1 id <> 1 9
#group		clump2 id <> 10 18
#group		clump3 id <> 19 27
#group		clump4 id <> 28 36
#group		clump5 id <> 37 45
#group		clump6 id <> 46 54
#group		clump7 id <> 55 63
#group		clump8 id <> 64 72
#group		clump9 id <> 73 81

#fix 1 all rigid group 9 clump1 clump2 clump3 clump4 clump5 #	  	      clump6 clump7 clump8 clump9

# 1 chain of connected bodies

#group		clump1 id <> 1 9
#group		clump2 id <> 9 18
#group		clump3 id <> 18 27
#group		clump4 id <> 27 36
#group		clump5 id <> 36 45
#group		clump6 id <> 45 54
#group		clump7 id <> 54 63
#group		clump8 id <> 63 72
#group		clump9 id <> 72 81

#fix 1 all poems group clump1 clump2 clump3 clump4 clump5 #	  	      clump6 clump7 clump8 clump9

# 2 chains of connected bodies

group		clump1 id <> 1 9
9 atoms in group clump1
group		clump2 id <> 9 18
10 atoms in group clump2
group		clump3 id <> 18 27
10 atoms in group clump3
group		clump4 id <> 27 36
10 atoms in group clump4
group		clump5 id <> 37 45
9 atoms in group clump5
group		clump6 id <> 45 54
10 atoms in group clump6
group		clump7 id <> 54 63
10 atoms in group clump7
group		clump8 id <> 63 72
10 atoms in group clump8
group		clump9 id <> 72 81
10 atoms in group clump9

fix 1 all poems group clump1 clump2 clump3 clump4
1 clusters, 4 bodies, 3 joints, 36 atoms
fix 2 all poems group clump5 clump6 clump7 clump8 clump9
1 clusters, 5 bodies, 4 joints, 45 atoms

neigh_modify	exclude group clump1 clump1
neigh_modify	exclude group clump2 clump2
neigh_modify	exclude group clump3 clump3
neigh_modify	exclude group clump4 clump4
neigh_modify	exclude group clump5 clump5
neigh_modify	exclude group clump6 clump6
neigh_modify	exclude group clump7 clump7
neigh_modify	exclude group clump8 clump8
neigh_modify	exclude group clump9 clump9

thermo		100

#dump		1 all atom 50 dump.rigid.poems2

#dump		2 all image 100 image.*.jpg type type #		axes yes 0.8 0.02 view 60 -30
#dump_modify	2 pad 5

#dump		3 all movie 100 movie.mpg type type #		axes yes 0.8 0.02 view 60 -30
#dump_modify	3 pad 5

timestep 	0.0001
thermo		50
run		10000

CITE-CITE-CITE-CITE-CITE-CITE-CITE-CITE-CITE-CITE-CITE-CITE-CITE

Your simulation uses code contributions which should be cited:

- fix poems command: doi:10.1016/j.ijnonlinmec.2008.04.003

@Article{Mukherjee08,
 author = {R. M. Mukherjee and P. S. Crozier and S. J. Plimpton and K. S. Anderson},
 title = {Substructured Molecular Dynamics Using Multibody Dynamics Algorithms},
 journal = {Intl.\ J.\ Non-Linear Mechanics},
 year =    2008,
 volume =  43,
 number =  10,
 pages =   {1040--1055}
}

CITE-CITE-CITE-CITE-CITE-CITE-CITE-CITE-CITE-CITE-CITE-CITE-CITE

Generated 0 of 0 mixed pair_coeff terms from geometric mixing rule
WARNING: More than one fix poems (src/POEMS/fix_poems.cpp:353)
WARNING: More than one fix poems (src/POEMS/fix_poems.cpp:353)
WARNING: One or more atoms are time integrated more than once (src/modify.cpp:292)
Neighbor list info ...
  update: every = 1 steps, delay = 0 steps, check = yes
  max neighbors/atom: 2000, page size: 100000
  master list distance cutoff = 2.8
  ghost atom cutoff = 2.8
  binsize = 1.4, bins = 18 18 18
  1 neighbor lists, perpetual/occasional/extra = 1 0 0
  (1) pair lj/cut, perpetual
      attributes: half, newton on
      pair build: half/bin/atomonly/newton
      stencil: half/bin/3d
      bin: standard
Per MPI rank memory allocation (min/avg/max) = 4.069 | 4.085 | 4.195 Mbytes
   Step          Temp          E_pair         E_mol          TotEng         Press     
         0   196.00047      3632.2347      0              3668.5311     -2.7403788    
        50   12167.633      1505.5478      0              3758.8133      35.125973    
       100   17556.978      512.66277      0              3763.9549      11.137534    
       150   19579.586      138.04942      0              3763.8987     -29.953971    
       200   19757.51       105.30542      0              3764.1036     -0.030645317  
       250   18218.374      390.10747      0              3763.8804      13.711001    
       300   19383.039      174.40688      0              3763.8586      5.7240693    
       350   20125.986      36.972611      0              3764.0071      1.9559205    
       400   18888.816      266.10975      0              3764.0386      9.6362168    
       450   19307.656      188.2511       0              3763.743       1.9326206    
       500   16331.197      738.56392      0              3762.8597      9.1715579    
       550   19318.722      186.16172      0              3763.7027      3.0115336    
       600   19455.268      161.20621      0              3764.0336      0.55208034   
       650   18487.011      340.03216      0              3763.5528     -8.0359122    
       700   17321.201      556.32471      0              3763.9545     -13.631751    
       750   18979.187      249.04389      0              3763.7082     -2.6072455    
       800   19342.456      181.85552      0              3763.7918      8.1918726    
       850   19070.641      232.19342      0              3763.7936      7.3148472    
       900   19478.873      156.65987      0              3763.8586      2.4284987    
       950   19912.415      76.437437      0              3763.9216     -1.4667227    
      1000   16003.749      802.39753      0              3766.0548      46.642188    
      1050   19859.583      86.64176       0              3764.3424     -2.1961943    
      1100   19229.575      203.61488      0              3764.6473     -10.632365    
      1150   18821.6        279.15861      0              3764.64       -0.89495035   
      1200   19392.695      173.59744      0              3764.8373      1.8508753    
      1250   16459.624      717.32104      0              3765.3995      33.478127    
      1300   19343.863      182.59043      0              3764.7874      0.75890736   
      1350   20019.643      57.503573      0              3764.8448      0.31444671   
      1400   18549.582      329.31436      0              3764.4221      10.738304    
      1450   15163.926      957.47583      0              3765.6103     -17.923459    
      1500   19223.688      204.15167      0              3764.0939     -1.6134543    
      1550   18147.996      404.12675      0              3764.8668      8.4194766    
      1600   18615.043      317.42463      0              3764.6548     -2.3288995    
      1650   20120.654      38.88795       0              3764.935      -8.7620191    
      1700   19450.905      162.98304      0              3765.0025      2.3254668    
      1750   19374.633      177.37934      0              3765.2744      8.9328787    
      1800   19424.403      167.93979      0              3765.0514      0.081240154  
      1850   17936.413      442.81206      0              3764.3699      6.600615     
      1900   19982.597      64.405861      0              3764.8868     -2.9530575    
      1950   16216.109      761.86458      0              3764.8478      13.993465    
      2000   18584.339      322.13562      0              3763.6799      7.1656273    
      2050   20107.967      41.025436      0              3764.723      -0.3109762    
      2100   20002.367      60.586764      0              3764.7288     -6.7919029    
      2150   16949.366      626.66955      0              3765.4411      3.5103128    
      2200   20010.95       58.808834      0              3764.5403     -10.86239     
      2250   18982.722      247.01034      0              3762.3292     -0.53777918   
      2300   18401.44       354.85357      0              3762.5276      1.0916982    
      2350   19390.46       172.95332      0              3763.7793     -3.3528555    
      2400   16083.051      785.97113      0              3764.314      -16.193482    
      2450   18871.234      268.59807      0              3763.2711      11.183636    
      2500   19686.752      117.86757      0              3763.5624      4.396274     
      2550   18874.281      268.14629      0              3763.3834     -5.6501302    
      2600   17013.574      612.77822      0              3763.4401      6.3313924    
      2650   18787.292      284.75027      0              3763.8784      2.3714809    
      2700   19730.62       109.36382      0              3763.1823     -0.26982012   
      2750   19469.381      158.0051       0              3763.446      -1.5715416    
      2800   18407.411      353.29193      0              3762.0717      21.112873    
      2850   18939.582      255.67913      0              3763.0092      2.4492109    
      2900   20108.147      39.499041      0              3763.2299     -0.27354747   
      2950   15698.27       856.19794      0              3763.285       16.954467    
      3000   17603.912      503.03955      0              3763.0232      2.9859631    
      3050   18931.739      257.45419      0              3763.3318      3.9899737    
      3100   16245.093      755.31539      0              3763.6659      16.393104    
      3150   19484.418      154.91627      0              3763.1418     -15.014378    
      3200   20018.532      55.996038      0              3763.1316     -10.149523    
      3250   14765.023      1028.9747      0              3763.2381      27.639242    
      3300   18760.688      288.93636      0              3763.1379      4.3590489    
      3350   19147.879      217.23724      0              3763.1408      0.47848238   
      3400   17426.796      535.82868      0              3763.0131      7.464701     
      3450   17676.564      489.65564      0              3763.0935      27.675437    
      3500   17594.012      503.95964      0              3762.1099      15.435001    
      3550   19264.146      195.53262      0              3762.9671     -9.487834     
      3600   16421.353      721.99149      0              3762.9829      3.057535     
      3650   16158.994      771.73784      0              3764.1442      3.4088033    
      3700   18960.726      251.6493       0              3762.8949     -7.4067231    
      3750   19103.776      225.19929      0              3762.9356     -8.2903701    
      3800   18457.806      345.04845      0              3763.1606     -3.286491     
      3850   19106.677      224.77162      0              3763.0452     -6.2068707    
      3900   17082.758      598.62469      0              3762.0983      15.83814     
      3950   15713.361      852.57412      0              3762.4558     -9.6090619    
      4000   17564.462      510.41651      0              3763.0946     -0.8208218    
      4050   17597.85       503.86782      0              3762.7289      0.80177255   
      4100   19629.325      127.81145      0              3762.8717      1.4194119    
      4150   17391.159      542.1824       0              3762.7673      2.627007     
      4200   19791.895      97.663229      0              3762.8289      0.31369548   
      4250   16976.813      618.54325      0              3762.3975      3.6910644    
      4300   18880.243      266.21021      0              3762.5516      3.342025     
      4350   19096.693      226.22798      0              3762.6526      0.60449595   
      4400   19344.277      180.48575      0              3762.7593     -5.1071318    
      4450   19147.985      216.78035      0              3762.7035     -0.74189163   
      4500   17566.635      508.02975      0              3761.1104      16.55629     
      4550   17173.071      582.21182      0              3762.4101     -6.2634883    
      4600   19289.822      190.26246      0              3762.4517     -0.29431244   
      4650   18077.296      414.34739      0              3761.9948     -3.8248255    
      4700   19754.333      104.13857      0              3762.3484      0.64748052   
      4750   18305.874      372.34111      0              3762.3177      4.3563582    
      4800   17311.818      556.7155       0              3762.6078      1.1282991    
      4850   19863.225      84.089266      0              3762.4642     -0.33119461   
      4900   19891.149      78.894112      0              3762.4403     -3.2865827    
      4950   17888.262      448.34396      0              3760.9851     -10.90223     
      5000   18911.579      260.30583      0              3762.45        2.5656829    
      5050   15556.685      883.77049      0              3764.6381     -3.5825686    
      5100   19349.908      179.23846      0              3762.5547     -0.76917284   
      5150   18161.669      398.70838      0              3761.9805      4.7440009    
      5200   19353.126      178.06509      0              3761.9773      6.5539925    
      5250   19064.948      231.97268      0              3762.5185      7.5782201    
      5300   18661.18       306.56846      0              3762.3426      10.006501    
      5350   19325.267      183.74468      0              3762.4978      4.0448486    
      5400   18039.13       421.8921       0              3762.4717     -6.9620377    
      5450   19546.945      142.64672      0              3762.4513      0.67194509   
      5500   19238.152      199.94266      0              3762.5635      5.2746279    
      5550   18097.251      410.77206      0              3762.1149     -5.4653039    
      5600   18251.014      382.35227      0              3762.1697     -9.8285662    
      5650   18823.662      276.53982      0              3762.4031      5.8171495    
      5700   18903.366      261.7689       0              3762.3923     -1.7145629    
      5750   19596.659      132.91897      0              3761.93       -5.4877097    
      5800   20100.209      40.052912      0              3762.3139     -1.7027237    
      5850   19991.075      60.263623      0              3762.3145     -1.2161578    
      5900   19761.66       102.74174      0              3762.3084      0.6314924    
      5950   19606.358      131.4084       0              3762.2155      4.7470857    
      6000   18721.662      294.30544      0              3761.2799      7.903853     
      6050   19410.569      167.43098      0              3761.9807      3.2387804    
      6100   18336.248      366.338        0              3761.9395      6.1046511    
      6150   19729.265      108.29014      0              3761.8578     -6.4062097    
      6200   19305.499      186.76359      0              3761.856       3.0547501    
      6250   16057.849      788.18319      0              3761.859      -6.0201696    
      6300   19891.477      78.527176      0              3762.1341      1.7451368    
      6350   19363.792      176.37192      0              3762.2593      3.9531591    
      6400   18551.99       326.94444      0              3762.4981      8.0846447    
      6450   19018.955      240.20197      0              3762.2308      3.4604176    
      6500   16962.404      621.56968      0              3762.7556      11.208199    
      6550   19822.532      91.797372      0              3762.6366     -5.350196     
      6600   19976.123      63.188863      0              3762.471      -1.408532     
      6650   19058.919      232.5184       0              3761.9478     -1.4540565    
      6700   19129.013      217.36345      0              3759.7732     -3.4156278    
      6750   17478.78       524.17446      0              3760.9855      12.598905    
      6800   18071.866      414.9882       0              3761.63        4.7054858    
      6850   17590.549      504.50975      0              3762.0189     -1.6733222    
      6900   19884.351      80.251149      0              3762.5383     -2.1926503    
      6950   18730.083      293.92438      0              3762.4582      3.5623727    
      7000   15890.205      819.84274      0              3762.4733      6.4036405    
      7050   19060.634      232.47058      0              3762.2176     -0.8149422    
      7100   15352.698      919.45645      0              3762.5487     -13.035548    
      7150   19049.772      234.45291      0              3762.1886      3.9522229    
      7200   19247.567      197.19228      0              3761.5566      8.3643637    
      7250   19823.99       90.946819      0              3762.056      -1.0901031    
      7300   19621.297      128.06528      0              3761.6388      3.2832895    
      7350   17059.13       601.66018      0              3760.7584      11.38957     
      7400   17687.973      485.87105      0              3761.4216      7.1300438    
      7450   19061.042      231.35478      0              3761.1774      4.2517937    
      7500   18921.332      258.08854      0              3762.0388      10.945856    
      7550   19340.865      180.54908      0              3762.1908     -3.053721     
      7600   18477.914      340.52717      0              3762.3632      0.68626644   
      7650   19789.336      97.737441      0              3762.4292      3.3519447    
      7700   19919.893      73.534072      0              3762.4031      2.448332     
      7750   20210.186      19.754276      0              3762.3814     -3.0868681    
      7800   19910.224      75.265778      0              3762.3442     -5.9540028    
      7850   18924.006      258.23406      0              3762.6797      6.8442694    
      7900   18644.079      309.5368       0              3762.144      -4.1897176    
      7950   19902.575      76.743532      0              3762.4055     -5.4173819    
      8000   18649.166      308.90482      0              3762.4541      6.8874033    
      8050   19019.184      239.91807      0              3761.9892      5.0125643    
      8100   17697.353      484.36252      0              3761.65        32.023624    
      8150   19183.765      209.19724      0              3761.7463      10.746518    
      8200   20084.137      43.045722      0              3762.3303      2.8179388    
      8250   18167.964      397.7064       0              3762.1441     -0.81141943   
      8300   19765.353      102.18894      0              3762.4395     -9.6248979    
      8350   18128.162      405.81033      0              3762.8773     -16.667726    
      8400   17875.485      452.4417       0              3762.7167     -7.6404687    
      8450   19944.092      69.248531      0              3762.5988     -0.81185914   
      8500   17411.264      537.85757      0              3762.1656      16.221457    
      8550   19375.008      174.35189      0              3762.3163     -6.2265641    
      8600   17761.889      473.36166      0              3762.6004      3.3324544    
      8650   19021.815      240.04223      0              3762.6006      3.7788304    
      8700   18718.475      296.2417       0              3762.626       8.3485292    
      8750   18704.019      298.7656       0              3762.4727     -13.16086     
      8800   19759.445      103.42028      0              3762.5767     -4.7399039    
      8850   19983.831      61.762412      0              3762.4718     -4.5023368    
      8900   18975.905      248.51209      0              3762.5685     -11.795862    
      8950   18471.588      342.09184      0              3762.7562      2.6339345    
      9000   17008.212      613.70298      0              3763.3718      25.425928    
      9050   17771.209      471.19857      0              3762.1632      5.4839643    
      9100   19159.581      213.75283      0              3761.8234      5.9713409    
      9150   18486.004      339.6082       0              3762.9423      0.37811486   
      9200   18059.025      418.49087      0              3762.7547      8.0315473    
      9250   15637.585      866.87665      0              3762.7258     -10.728967    
      9300   17814.722      463.87338      0              3762.896      -6.7172785    
      9350   19818.689      92.573972      0              3762.7015      4.3199898    
      9400   19124.681      221.03271      0              3762.6403      4.8317862    
      9450   18960.776      251.54614      0              3762.8009      0.60086386   
      9500   19109.07       223.90479      0              3762.6214      4.0835483    
      9550   19904.595      76.684835      0              3762.7209     -7.0583518    
      9600   19110.852      223.26498      0              3762.3117      5.228573     
      9650   20028.386      53.649148      0              3762.6095     -7.7735297    
      9700   19371.854      175.31741      0              3762.6978      1.2972348    
      9750   17104.451      590.55326      0              3758.0441     -6.8123112    
      9800   19081.028      227.75916      0              3761.2829      7.088797     
      9850   18979.056      247.7923       0              3762.4323      4.5650731    
      9900   20201.276      21.60782       0              3762.5849     -5.9785502    
      9950   19037.552      236.95301      0              3762.4257      9.5568212    
     10000   19948.778      68.381863      0              3762.6         1.1627431    
Loop time of 27.6923 on 8 procs for 10000 steps with 81 atoms

Performance: 3120.006 tau/day, 361.112 timesteps/s, 29.250 katom-step/s
96.3% CPU use with 8 MPI tasks x no OpenMP threads

MPI task timing breakdown:
Section |  min time  |  avg time  |  max time  |%varavg| %total
---------------------------------------------------------------
Pair    | 0.015472   | 0.036964   | 0.10042    |  13.3 |  0.13
Neigh   | 0.013915   | 0.0262     | 0.051671   |   7.1 |  0.09
Comm    | 0.84821    | 1.1795     | 1.5097     |  26.0 |  4.26
Output  | 0.014976   | 0.031627   | 0.086649   |  11.9 |  0.11
Modify  | 18.637     | 19.469     | 20.436     |  15.6 | 70.30
Other   |            | 6.949      |            |       | 25.09

Nlocal:         10.125 ave          36 max           0 min
Histogram: 5 0 0 0 1 0 0 1 0 1
Nghost:          26.25 ave          53 max           0 min
Histogram: 3 0 0 0 0 0 1 2 1 1
Neighs:          85.75 ave         297 max           0 min
Histogram: 5 0 0 1 0 0 0 0 0 2

Total # of neighbors = 686
Ave neighs/atom = 8.4691358
Neighbor list builds = 1166
Dangerous builds = 0
Total wall time: 0:00:27
