LAMMPS (18 Jun 2019)
  using 1 OpenMP thread(s) per MPI task
# Simple rigid body system

units		lj
atom_style	atomic

pair_style	lj/cut 2.5

read_data	data.rigid
  orthogonal box = (-12 -12 -12) to (12 12 12)
  2 by 2 by 2 MPI processor grid
  reading atoms ...
  81 atoms
  read_data CPU = 0.00106239 secs

velocity 	all create 100.0 4928459

# unconnected bodies

#group		clump1 id <> 1 9
#group		clump2 id <> 10 18
#group		clump3 id <> 19 27
#group		clump4 id <> 28 36
#group		clump5 id <> 37 45
#group		clump6 id <> 46 54
#group		clump7 id <> 55 63
#group		clump8 id <> 64 72
#group		clump9 id <> 73 81

#fix 1 all rigid group 9 clump1 clump2 clump3 clump4 clump5 #	  	      clump6 clump7 clump8 clump9

# 1 chain of connected bodies

#group		clump1 id <> 1 9
#group		clump2 id <> 9 18
#group		clump3 id <> 18 27
#group		clump4 id <> 27 36
#group		clump5 id <> 36 45
#group		clump6 id <> 45 54
#group		clump7 id <> 54 63
#group		clump8 id <> 63 72
#group		clump9 id <> 72 81

#fix 1 all poems group clump1 clump2 clump3 clump4 clump5 #	  	      clump6 clump7 clump8 clump9

# 2 chains of connected bodies

group		clump1 id <> 1 9
9 atoms in group clump1
group		clump2 id <> 9 18
10 atoms in group clump2
group		clump3 id <> 18 27
10 atoms in group clump3
group		clump4 id <> 27 36
10 atoms in group clump4
group		clump5 id <> 37 45
9 atoms in group clump5
group		clump6 id <> 45 54
10 atoms in group clump6
group		clump7 id <> 54 63
10 atoms in group clump7
group		clump8 id <> 63 72
10 atoms in group clump8
group		clump9 id <> 72 81
10 atoms in group clump9

fix 1 all poems group clump1 clump2 clump3 clump4
1 clusters, 4 bodies, 3 joints, 36 atoms
fix 2 all poems group clump5 clump6 clump7 clump8 clump9
1 clusters, 5 bodies, 4 joints, 45 atoms

neigh_modify	exclude group clump1 clump1
neigh_modify	exclude group clump2 clump2
neigh_modify	exclude group clump3 clump3
neigh_modify	exclude group clump4 clump4
neigh_modify	exclude group clump5 clump5
neigh_modify	exclude group clump6 clump6
neigh_modify	exclude group clump7 clump7
neigh_modify	exclude group clump8 clump8
neigh_modify	exclude group clump9 clump9

thermo		100

#dump		1 all atom 50 dump.rigid.poems2

#dump		2 all image 100 image.*.jpg type type #		axes yes 0.8 0.02 view 60 -30
#dump_modify	2 pad 5

#dump		3 all movie 100 movie.mpg type type #		axes yes 0.8 0.02 view 60 -30
#dump_modify	3 pad 5

timestep 	0.0001
thermo		50
run		10000
WARNING: More than one fix poems (src/POEMS/fix_poems.cpp:363)
WARNING: More than one fix poems (src/POEMS/fix_poems.cpp:363)
WARNING: One or more atoms are time integrated more than once (src/modify.cpp:289)
Neighbor list info ...
  update every 1 steps, delay 10 steps, check yes
  max neighbors/atom: 2000, page size: 100000
  master list distance cutoff = 2.8
  ghost atom cutoff = 2.8
  binsize = 1.4, bins = 18 18 18
  1 neighbor lists, perpetual/occasional/extra = 1 0 0
  (1) pair lj/cut, perpetual
      attributes: half, newton on
      pair build: half/bin/atomonly/newton
      stencil: half/bin/3d/newton
      bin: standard
Per MPI rank memory allocation (min/avg/max) = 3.818 | 3.865 | 4.194 Mbytes
Step Temp E_pair E_mol TotEng Press 
       0    196.00047    3632.2347            0    3668.5311   -2.7403788 
      50    12167.633    1505.5478            0    3758.8133    35.125973 
     100    17556.978    512.66277            0    3763.9549    11.137534 
     150    19579.586    138.04942            0    3763.8987   -29.953971 
     200     19757.51    105.30542            0    3764.1036 -0.030645317 
     250    18218.374    390.10747            0    3763.8804    13.711001 
     300    19383.039    174.40688            0    3763.8586    5.7240693 
     350    20125.986    36.972611            0    3764.0071    1.9559205 
     400    18888.816    266.10975            0    3764.0386    9.6362168 
     450    19307.656     188.2511            0     3763.743    1.9326206 
     500    16331.197    738.56392            0    3762.8597    9.1715579 
     550    19318.722    186.16172            0    3763.7027    3.0115336 
     600    19455.268    161.20621            0    3764.0336   0.55208034 
     650    18487.011    340.03216            0    3763.5528   -8.0359122 
     700    17321.201    556.32471            0    3763.9545   -13.631751 
     750    18979.187    249.04389            0    3763.7082   -2.6072455 
     800    19342.456    181.85552            0    3763.7918    8.1918726 
     850    19070.641    232.19342            0    3763.7936    7.3148472 
     900    19478.873    156.65987            0    3763.8586    2.4284987 
     950    19912.415    76.437437            0    3763.9216   -1.4667227 
    1000    16003.749    802.39753            0    3766.0548    46.642188 
    1050    19859.583     86.64176            0    3764.3424   -2.1961943 
    1100    19229.575    203.61488            0    3764.6473   -10.632365 
    1150      18821.6    279.15861            0      3764.64  -0.89495035 
    1200    19392.695    173.59744            0    3764.8373    1.8508753 
    1250    16459.624    717.32104            0    3765.3995    33.478127 
    1300    19343.863    182.59043            0    3764.7874   0.75890736 
    1350    20019.643    57.503573            0    3764.8448   0.31444671 
    1400    18549.582    329.31436            0    3764.4221    10.738303 
    1450    15163.926    957.47585            0    3765.6103    -17.92346 
    1500    19223.688    204.15179            0    3764.0939   -1.6134526 
    1550    18147.996    404.12677            0    3764.8668    8.4194786 
    1600    18615.043    317.42469            0    3764.6548   -2.3288907 
    1650    20120.654    38.887897            0     3764.935   -8.7620315 
    1700    19450.908    162.98257            0    3765.0025    2.3254759 
    1750    19374.631     177.3798            0    3765.2744    8.9328769 
    1800    19424.404    167.93961            0    3765.0514  0.081225665 
    1850    17936.176    442.85591            0    3764.3699    6.6012658 
    1900    19982.594    64.406348            0    3764.8868   -2.9529473 
    1950    16215.738    761.93441            0    3764.8488    13.995263 
    2000    18584.458     322.1138            0    3763.6801    7.1652992 
    2050    20107.965    41.025893            0     3764.723  -0.31087611 
    2100    20002.318    60.595846            0    3764.7288   -6.7920109 
    2150    16949.943    626.56251            0    3765.4409    3.5083135 
    2200    20010.955    58.808028            0    3764.5403   -10.862076 
    2250    18982.737    247.00764            0    3762.3293  -0.53823566 
    2300    18401.227    354.89277            0    3762.5274    1.0922222 
    2350    19390.559    172.93493            0    3763.7792   -3.3523024 
    2400    16079.727     786.5876            0    3764.3148   -16.203952 
    2450    18870.022    268.82178            0    3763.2703    11.204353 
    2500    19689.008    117.44884            0    3763.5615    4.3762496 
    2550    18869.189     269.0901            0    3763.3844   -5.6681119 
    2600    17022.168    611.18593            0    3763.4392    6.3017655 
    2650    18738.613    293.78184            0    3763.8953    2.4300521 
    2700    19747.469    106.29578            0    3763.2345  -0.35877338 
    2750    19528.772     146.9891            0    3763.4284   -1.6154937 
    2800    18114.225    408.15903            0    3762.6451    25.643211 
    2850    18643.276    310.53053            0     3762.989     4.061325 
    2900    20182.173    25.768458            0    3763.2079    2.0067634 
    2950    18069.968    416.72632            0    3763.0166  -0.01260658 
    3000    19205.167    206.43154            0     3762.944    2.3757739 
    3050    18854.954    271.49387            0    3763.1521     0.168395 
    3100    18065.605    417.97114            0    3763.4536    8.2211867 
    3150    19735.387    108.77753            0    3763.4789   -10.331711 
    3200    17825.051    462.57097            0    3763.5064    9.0109495 
    3250    19653.233    123.84609            0    3763.3337   0.52290438 
    3300     18473.45    342.31035            0    3763.3195     2.616075 
    3350    18057.663    419.39315            0    3763.4048   0.45614863 
    3400    16675.513     675.5171            0     3763.575    22.277918 
    3450    18815.264    278.84278            0     3763.151    1.1456346 
    3500    18145.832    402.70005            0    3763.0392     14.45201 
    3550    19746.679    106.39705            0    3763.1895   -2.7380861 
    3600    19163.524    214.40041            0    3763.2012   -11.075357 
    3650    18577.755    323.05589            0    3763.3809  0.029949598 
    3700    17606.053     503.0485            0    3763.4288    25.796604 
    3750    18727.517    295.12831            0     3763.187   0.84075578 
    3800    19415.441    167.75107            0    3763.2031   -5.1971639 
    3850    19454.642    160.41754            0    3763.1291   -5.8349687 
    3900    19791.863    97.958683            0    3763.1185   0.21563329 
    3950    19231.683    200.99195            0    3762.4147    7.5648785 
    4000     14195.15    1135.2856            0     3764.017    81.944562 
    4050    18920.252    259.21061            0     3762.961    2.6654253 
    4100    19841.231    88.681256            0    3762.9833   -10.629073 
    4150    19390.269    172.35193            0    3763.1425    -6.134257 
    4200    19062.791    233.08897            0    3763.2355   0.94812444 
    4250    19125.913    221.49262            0    3763.3283    6.5859503 
    4300    18260.245    381.90545            0    3763.4323    15.657699 
    4350     19242.35    199.98772            0    3763.3858    15.325062 
    4400    18280.183    375.39671            0    3760.6158   -28.248742 
    4450    18122.063    407.62892            0    3763.5665    7.5206054 
    4500    19837.986    89.678512            0    3763.3795   -3.9434024 
    4550    16871.105    640.20711            0    3764.4858    6.9489969 
    4600    18414.269     352.2245            0    3762.2744    7.7272447 
    4650    20148.616    32.037477            0    3763.2626    1.9470971 
    4700    19459.753    159.75087            0    3763.4089   -2.6269248 
    4750    19774.686    101.16982            0    3763.1487    1.5905711 
    4800    18683.062    303.52362            0    3763.3498    2.8832671 
    4850    19509.808    150.10157            0    3763.0289   -2.4394316 
    4900    17558.432    511.42864            0      3762.99  -0.58905413 
    4950    16728.086    665.11129            0     3762.905   -9.8286859 
    5000    18189.729      392.431            0    3760.8993    4.9051132 
    5050      18620.8      313.262            0    3761.5583    -3.762662 
    5100    18565.514    324.79326            0    3762.8514    6.5091114 
    5150    19537.789    144.94659            0    3763.0556    3.6438036 
    5200    18770.951    286.91892            0    3763.0209    4.4715319 
    5250    18735.569    293.44642            0    3762.9962    8.7135852 
    5300    19831.169    90.643091            0    3763.0817   -5.0210747 
    5350    19546.403    143.56982            0    3763.2741   -4.0749933 
    5400    19343.145    181.15672            0    3763.2206   -7.8462838 
    5450    18996.886    244.65639            0    3762.5982    7.3961285 
    5500    19196.975    208.17501            0    3763.1704    -3.164065 
    5550    19266.523    195.32615            0    3763.2007   -3.4153571 
    5600    19155.302    215.88878            0     3763.167    3.2188137 
    5650    19566.901    139.64283            0    3763.1429    2.4998055 
    5700    18961.859     251.5454            0    3763.0007   -7.0149906 
    5750    19149.134    216.90478            0    3763.0406   -4.8457055 
    5800    14879.028     1008.099            0    3763.4746    19.843986 
    5850    17505.808    521.01016            0    3762.8264    4.1151245 
    5900     15787.57    840.01037            0    3763.6345    8.4835719 
    5950    16658.597    678.18459            0      3763.11    -1.246118 
    6000    18704.579    299.06153            0    3762.8724    4.6707773 
    6050    18771.609    286.54859            0    3762.7725    6.9299058 
    6100    17793.084     467.6832            0    3762.6987     16.51037 
    6150    19344.511     180.5849            0    3762.9018   -3.3558715 
    6200    19647.784    124.50407            0    3762.9825   -1.1448471 
    6250    18644.163    310.52598            0    3763.1488    8.3502316 
    6300    17560.438    510.63772            0    3762.5706    4.4424334 
    6350    18167.273    398.30362            0    3762.6133  -0.79212488 
    6400    19816.779     93.17918            0    3762.9531    -10.10162 
    6450     18525.45    332.15432            0    3762.7931      2.45926 
    6500     18598.82    318.99397            0      3763.22    4.1500298 
    6550    18168.559     398.6279            0    3763.1759   -2.6025649 
    6600    18845.857     272.9751            0    3762.9486     11.13056 
    6650    18718.558    296.93108            0    3763.3307   -2.2020198 
    6700     19563.05    140.44834            0    3763.2354   -6.9744884 
    6750    19217.568    204.30405            0     3763.113    2.9562747 
    6800    17928.076    442.98042            0    3762.9945     8.327874 
    6850    18516.417    334.37674            0    3763.3429    4.4867667 
    6900    17914.052    445.94242            0    3763.3595   -14.479768 
    6950     19649.69     124.3478            0    3763.1793    -4.432684 
    7000    18913.913    260.50805            0    3763.0845    2.6103121 
    7050    15809.708    835.53983            0    3763.2634 -0.033082644 
    7100    18566.699    324.81748            0     3763.095     1.719374 
    7150    18942.775    255.34945            0    3763.2708    3.6833694 
    7200    18393.465    356.74717            0    3762.9444    6.4273269 
    7250    17978.411    434.17007            0    3763.5055   -8.2213205 
    7300    18904.659    262.36151            0    3763.2242    23.166344 
    7350    18436.059    348.78643            0    3762.8715    1.5067012 
    7400    18595.643    318.58329            0    3762.2209    6.3508417 
    7450      17729.7    479.33257            0    3762.6104    8.2855265 
    7500    19502.191    151.40291            0    3762.9197   -3.4226417 
    7550    19010.361    242.21505            0    3762.6522   -14.042739 
    7600    18630.059    312.60443            0    3762.6154    7.7491693 
    7650    15802.842    835.58685            0    3762.0391    10.858981 
    7700    17037.458    607.63871            0    3762.7234   -5.1326732 
    7750      16759.2    659.40534            0     3762.961    -6.544664 
    7800    18089.035    412.67475            0    3762.4961    1.2246039 
    7850    16985.884    617.70487            0    3763.2389   -7.5713514 
    7900    17056.944    603.96664            0      3762.66   -9.4517204 
    7950    17573.588     508.3775            0    3762.7456   -3.3991724 
    8000    17154.814    585.66186            0    3762.4792   -8.9320691 
    8050     15998.61    800.61719            0    3763.3227   -12.665904 
    8100    18029.961    424.15758            0    3763.0392    1.4254256 
    8150    16184.339    765.18573            0    3762.2855    11.432633 
    8200    17525.653     517.1511            0    3762.6424    3.6748361 
    8250    17896.491    448.66295            0    3762.8279     2.485298 
    8300    17125.244    591.46372            0    3762.8051    4.0192298 
    8350    18339.462    366.57518            0    3762.7718   0.82567291 
    8400    18139.491    403.60134            0    3762.7663    2.1322636 
    8450    16822.038    647.76852            0    3762.9608 -0.023124524 
    8500    17479.538    525.13491            0    3762.0864    1.4802165 
    8550    16150.543    771.91288            0    3762.7542    12.150063 
    8600      17098.1    596.54333            0    3762.8581   -7.1560763 
    8650    15939.154    810.52991            0     3762.225    11.781071 
    8700    17433.245    534.48614            0    3762.8649   -7.5247901 
    8750    17841.865    458.74772            0    3762.7968    2.0721166 
    8800    16894.994    633.54992            0    3762.2525   0.38376443 
    8850    16745.573    661.69821            0    3762.7302   0.91926755 
    8900    17504.339    520.71546            0    3762.2598    3.9769423 
    8950    17511.985    519.59562            0    3762.5559    8.5670492 
    9000    17500.564    522.01479            0      3762.86    4.0718302 
    9050     18071.19    416.04944            0    3762.5661   -4.1754324 
    9100    19059.611    232.80786            0    3762.3655    6.5735302 
    9150    18672.194    304.57998            0    3762.3936     1.181048 
    9200    18639.009    310.90105            0    3762.5694    10.020833 
    9250    17620.871    499.47576            0    3762.6001    14.156439 
    9300    17812.721    463.97115            0    3762.6232   -11.462477 
    9350    18715.282    296.81188            0    3762.6049   -2.0989096 
    9400    18422.742    351.30064            0    3762.9195    7.0227342 
    9450    18240.135    384.79934            0    3762.6021   -3.1518965 
    9500    18318.901    370.43697            0    3762.8261  -0.54570408 
    9550    17035.295    607.62145            0    3762.3057    4.1577437 
    9600    17183.028     579.0772            0    3761.1194    11.141181 
    9650    17101.976    596.30714            0    3763.3396   0.17714636 
    9700    15314.424    928.00671            0    3764.0112   -6.1631703 
    9750    19324.226      184.416            0    3762.9765  -0.32100121 
    9800    19020.773     240.5121            0    3762.8774    6.4783421 
    9850    15957.769    808.27757            0      3763.42   -5.1758693 
    9900    19660.928    122.15224            0    3763.0649   -2.9575759 
    9950    19048.026     235.5582            0    3762.9705   -1.4721485 
   10000    19024.582    239.77379            0    3762.8446    3.5328469 
Loop time of 3.67874 on 8 procs for 10000 steps with 81 atoms

Performance: 23486.331 tau/day, 2718.325 timesteps/s
99.2% CPU use with 8 MPI tasks x 1 OpenMP threads

MPI task timing breakdown:
Section |  min time  |  avg time  |  max time  |%varavg| %total
---------------------------------------------------------------
Pair    | 0.0057609  | 0.019045   | 0.046066   |   8.8 |  0.52
Neigh   | 0.0055766  | 0.013288   | 0.028295   |   5.9 |  0.36
Comm    | 0.14071    | 0.21528    | 0.26251    |   8.7 |  5.85
Output  | 0.0069664  | 0.0073048  | 0.0086656  |   0.6 |  0.20
Modify  | 3.3059     | 3.3996     | 3.5005     |   3.3 | 92.41
Other   |            | 0.02422    |            |       |  0.66

Nlocal:    10.125 ave 36 max 0 min
Histogram: 5 0 0 1 0 0 0 0 1 1
Nghost:    25.5 ave 56 max 0 min
Histogram: 3 0 0 0 1 0 1 2 0 1
Neighs:    98.625 ave 390 max 0 min
Histogram: 5 1 0 0 0 0 0 0 1 1

Total # of neighbors = 789
Ave neighs/atom = 9.74074
Neighbor list builds = 994
Dangerous builds = 949

Please see the log.cite file for references relevant to this simulation

Total wall time: 0:00:03
