LAMMPS (4 Jan 2019)
# Simple rigid body system

units		lj
atom_style	atomic

pair_style	lj/cut 2.5

read_data	data.rigid
  orthogonal box = (-12 -12 -12) to (12 12 12)
  2 by 2 by 2 MPI processor grid
  reading atoms ...
  81 atoms

velocity 	all create 100.0 4928459

# unconnected bodies

#group		clump1 id <> 1 9
#group		clump2 id <> 10 18
#group		clump3 id <> 19 27
#group		clump4 id <> 28 36
#group		clump5 id <> 37 45
#group		clump6 id <> 46 54
#group		clump7 id <> 55 63
#group		clump8 id <> 64 72
#group		clump9 id <> 73 81

#fix 1 all rigid group 9 clump1 clump2 clump3 clump4 clump5 #	  	      clump6 clump7 clump8 clump9

# 1 chain of connected bodies

group		clump1 id <> 1 9
9 atoms in group clump1
group		clump2 id <> 9 18
10 atoms in group clump2
group		clump3 id <> 18 27
10 atoms in group clump3
group		clump4 id <> 27 36
10 atoms in group clump4
group		clump5 id <> 36 45
10 atoms in group clump5
group		clump6 id <> 45 54
10 atoms in group clump6
group		clump7 id <> 54 63
10 atoms in group clump7
group		clump8 id <> 63 72
10 atoms in group clump8
group		clump9 id <> 72 81
10 atoms in group clump9

fix 1 all poems group clump1 clump2 clump3 clump4 clump5 	  	      clump6 clump7 clump8 clump9
1 clusters, 9 bodies, 8 joints, 81 atoms

# 2 chains of connected bodies

#group		clump1 id <> 1 9
#group		clump2 id <> 9 18
#group		clump3 id <> 18 27
#group		clump4 id <> 27 36
#group		clump5 id <> 37 45
#group		clump6 id <> 45 54
#group		clump7 id <> 54 63
#group		clump8 id <> 63 72
#group		clump9 id <> 72 81

#fix 1 all poems group clump1 clump2 clump3 clump4
#fix 2 all poems group clump5 clump6 clump7 clump8 clump9

neigh_modify	exclude group clump1 clump1
neigh_modify	exclude group clump2 clump2
neigh_modify	exclude group clump3 clump3
neigh_modify	exclude group clump4 clump4
neigh_modify	exclude group clump5 clump5
neigh_modify	exclude group clump6 clump6
neigh_modify	exclude group clump7 clump7
neigh_modify	exclude group clump8 clump8
neigh_modify	exclude group clump9 clump9

thermo		100

#dump		1 all atom 50 dump.rigid.poems

#dump		2 all image 100 image.*.jpg type type #		axes yes 0.8 0.02 view 60 -30
#dump_modify	2 pad 5

#dump		3 all movie 100 movie.mpg type type #		axes yes 0.8 0.02 view 60 -30
#dump_modify	3 pad 5

timestep 	0.0001
thermo		50
run		10000
Neighbor list info ...
  update every 1 steps, delay 10 steps, check yes
  max neighbors/atom: 2000, page size: 100000
  master list distance cutoff = 2.8
  ghost atom cutoff = 2.8
  binsize = 1.4, bins = 18 18 18
  1 neighbor lists, perpetual/occasional/extra = 1 0 0
  (1) pair lj/cut, perpetual
      attributes: half, newton on
      pair build: half/bin/atomonly/newton
      stencil: half/bin/3d/newton
      bin: standard
Per MPI rank memory allocation (min/avg/max) = 3.256 | 3.303 | 3.631 Mbytes
Step Temp E_pair E_mol TotEng Press 
       0     217.7783    3430.3907            0    3466.6871   -2.7403788 
      50    13679.637    1404.2468            0    3684.1863    12.446066 
     100    16777.225    888.87665            0    3685.0808   -31.828677 
     150    19595.365    418.45042            0    3684.3446    40.709078 
     200    18524.188    596.47273            0    3683.8375   -0.8159371 
     250    21015.789    180.96521            0    3683.5967   -10.042469 
     300    20785.513    219.25314            0    3683.5053    2.6452719 
     350     21072.46     171.2554            0    3683.3321    7.0609024 
     400    19956.414    356.36381            0    3682.4328    19.320259 
     450     20724.42    227.73284            0    3681.8028    8.1259249 
     500    20152.578    322.71466            0    3681.4777    5.4929878 
     550    20017.022    345.29701            0    3681.4673    5.4661666 
     600    17897.743    698.72196            0    3681.6791    3.2854742 
     650    17297.758    796.60256            0    3679.5623    15.191113 
     700    18581.934    584.29715            0    3681.2861    5.1588289 
     750    21774.158    52.821062            0    3681.8474   -10.775664 
     800    21604.055    81.188546            0    3681.8644   -3.2045743 
     850    17821.483    711.53827            0    3681.7854    7.4384277 
     900    21033.292    175.98127            0    3681.5299   -16.345167 
     950    20968.166    186.59847            0    3681.2929    -2.330456 
    1000     20490.66    266.19375            0    3681.3037    11.787983 
    1050    20222.396    310.94072            0      3681.34   -8.3459539 
    1100    21321.687    127.61533            0    3681.2299   -1.2184717 
    1150    20849.582    206.01695            0    3680.9472   -0.8669915 
    1200    21815.003    45.317415            0    3681.1512    1.5988314 
    1250    18655.437    572.41453            0     3681.654    10.064077 
    1300    20780.781    217.36506            0    3680.8286    6.0538618 
    1350    20558.972    254.36482            0    3680.8601   -3.6773964 
    1400    21485.029    99.812927            0    3680.6511   -16.185472 
    1450    21771.107    52.159602            0    3680.6775   -2.4756677 
    1500    21520.948    93.503932            0    3680.3286    2.1023578 
    1550    21351.418    121.68139            0    3680.2511    5.5159958 
    1600    20778.805    216.92175            0    3680.0559    15.089186 
    1650    21477.638    100.21832            0    3679.8247   -1.1045786 
    1700     18501.34    596.47905            0    3680.0357   -15.679668 
    1750    18563.642    587.34789            0    3681.2882    33.532201 
    1800    19110.187    494.82316            0    3679.8543    18.024044 
    1850    21364.192    119.23517            0    3679.9339    2.5291179 
    1900    20146.632    322.14775            0    3679.9197    5.7312705 
    1950     20692.67    231.25354            0    3680.0319    4.2977683 
    2000    20943.905    189.11213            0    3679.7629   -22.645234 
    2050    19668.081    401.82583            0    3679.8394    3.6252521 
    2100     20280.47    299.75686            0    3679.8353    7.4808194 
    2150    19181.906    483.51448            0    3680.4988    22.619375 
    2200     21300.07    130.72071            0    3680.7323    4.7105088 
    2250    20487.148    266.60532            0    3681.1299   -8.6444226 
    2300    18653.643    572.16142            0    3681.1019   -5.2646686 
    2350    21513.311    95.650352            0    3681.2022   -9.3597423 
    2400    21466.621    103.50656            0    3681.2767   -29.570528 
    2450    20099.329    332.40105            0    3682.2893    35.780282 
    2500    20763.698    221.78439            0    3682.4006   -12.483296 
    2550    20429.532    277.34103            0    3682.2631   -22.382564 
    2600    21467.105    104.43026            0    3682.2811   -10.069261 
    2650    20789.358    217.46906            0    3682.3621    5.1913401 
    2700    18566.653    588.18512            0    3682.6272    22.206089 
    2750      20695.6    232.94322            0    3682.2098   -7.3457634 
    2800    20888.031    200.85918            0    3682.1978   -7.0028259 
    2850    16505.342    931.61553            0    3682.5058    34.432766 
    2900    19330.415    460.41559            0    3682.1514    8.4325918 
    2950    20313.332    296.53559            0    3682.0909    2.8678797 
    3000    20322.856    294.75015            0    3681.8928   -9.6002538 
    3050    21280.899    135.33874            0    3682.1552   -9.5625948 
    3100    19551.254    423.32152            0    3681.8638    16.828557 
    3150    18760.153    554.95452            0    3681.6466    13.690662 
    3200    17935.087    692.59747            0    3681.7786    29.513356 
    3250    19793.896    383.29061            0    3682.2733    1.1461699 
    3300    21458.396    105.91467            0    3682.3141   -1.9549018 
    3350     21227.02    144.52453            0    3682.3611   -6.8952791 
    3400    21549.141    90.897819            0    3682.4214   0.28215268 
    3450    21427.945    111.18085            0     3682.505    3.6743979 
    3500     21510.56    97.445094            0    3682.5384   -0.4349074 
    3550    21079.109    169.26059            0    3682.4455  -0.21997968 
    3600    19073.134    501.33083            0    3680.1865    -19.32095 
    3650    19542.218    425.27078            0     3682.307   -8.3818909 
    3700    20634.985    243.21386            0    3682.3781   -3.3227275 
    3750    20888.531    200.83832            0    3682.2601    3.1016799 
    3800    21331.955    127.18677            0    3682.5126   -6.2019037 
    3850    19242.515    474.29386            0    3681.3796    16.709833 
    3900    21724.845    62.739288            0    3683.5467   -4.6834437 
    3950    21422.881    113.45209            0    3683.9322   -8.8348109 
    4000    19528.913    429.12448            0    3683.9433    8.0142209 
    4050    19808.642    382.50034            0    3683.9407   -1.4301969 
    4100     20093.41    334.10419            0    3683.0058    4.2047349 
    4150    20460.925    272.54162            0    3682.6957    8.0096795 
    4200    21717.502    63.054217            0    3682.6379    2.8361639 
    4250    20464.402    271.95749            0    3682.6911    6.4523263 
    4300    20668.251    238.41998            0    3683.1284   -10.809797 
    4350    21731.465    61.543017            0    3683.4539    -7.872162 
    4400      20895.8    200.77813            0    3683.4114    3.7550308 
    4450    20809.335    215.63607            0    3683.8585    4.5547794 
    4500    20731.265    229.66051            0    3684.8713   0.27367544 
    4550     21115.86    165.63408            0    3684.9441   0.73270984 
    4600    20428.594    279.95167            0    3684.7173   -16.045895 
    4650    20134.294    329.78537            0    3685.5011    6.4841158 
    4700    18499.215    603.07813            0    3686.2806    6.9530973 
    4750    21321.519    133.03365            0    3686.6202   -9.9046975 
    4800    21877.936    40.694221            0    3687.0169    -22.75976 
    4850    20139.626    329.74072            0     3686.345  -0.81001186 
    4900    20642.395    245.94893            0    3686.3481    13.896181 
    4950    21017.067    183.35225            0    3686.1968   -5.6488598 
    5000    20694.497    237.38023            0    3686.4631    -23.21704 
    5050    21239.722    146.19194            0    3686.1455   -17.941945 
    5100    21325.019    131.62635            0    3685.7961    -1.609742 
    5150    21356.686    127.11303            0    3686.5607     1.753104 
    5200    20354.069    294.86296            0    3687.2077   -4.3832471 
    5250    20179.762    323.75873            0    3687.0523   -1.4885935 
    5300    15994.776    1021.2201            0    3687.0161    37.691996 
    5350    17921.179    696.47165            0    3683.3348    13.966087 
    5400    18415.835    616.09054            0    3685.3963    24.738677 
    5450    20014.848    348.66269            0    3684.4707    -1.433411 
    5500    19695.836    402.32916            0    3684.9685   -5.8021175 
    5550    20678.127    238.27106            0    3684.6256  -0.84756003 
    5600    19186.394    487.00124            0    3684.7335   -7.6196794 
    5650    20177.655    321.60679            0    3684.5493  -0.67216434 
    5700    21134.935    162.27405            0    3684.7633    2.9659892 
    5750    18564.991    590.15753            0    3684.3227  -0.72402418 
    5800    18107.733    665.95628            0    3683.9117    18.931446 
    5850    20817.052    215.20662            0    3684.7152 -0.0037691208 
    5900    20056.526    341.69228            0    3684.4467    2.1989467 
    5950    17503.972    767.04172            0    3684.3704    7.9646468 
    6000    21088.597    169.97701            0    3684.7432    1.7411054 
    6050    20905.287    200.25544            0    3684.4699    5.8758847 
    6100    21586.392     86.92216            0    3684.6542    1.4597694 
    6150    19549.696    426.30378            0    3684.5865    8.5384552 
    6200    19562.129    424.18299            0    3684.5379   0.22939858 
    6250    20290.976    302.22584            0    3684.0551   -20.292673 
    6300    20178.643    320.55044            0    3683.6577   -8.1062296 
    6350    20196.882    316.61197            0     3682.759    10.142159 
    6400      18760.7    557.51769            0     3684.301   -6.3265093 
    6450    17653.275    741.27967            0    3683.4921    45.328556 
    6500    19653.902    408.79227            0    3684.4426    -3.470076 
    6550    20140.123    327.71156            0    3684.3988   -14.278071 
    6600    21123.515    164.01631            0    3684.6022    5.6123534 
    6650    20849.425    209.73295            0     3684.637    1.3504409 
    6700    21315.938    132.08631            0    3684.7426   -27.441772 
    6750    20731.539    230.00955            0     3685.266    -2.876499 
    6800    18772.717    556.45446            0    3685.2407    21.030103 
    6850    20478.267    272.38695            0    3685.4314   -2.8179195 
    6900    18103.366    667.86825            0     3685.096   -42.850931 
    6950    20688.389    237.14062            0    3685.2055   -3.6455883 
    7000    18372.389    623.27529            0    3685.3402    7.9212947 
    7050    21199.697    151.85803            0    3685.1409  -0.66975703 
    7100    21515.351    98.812922            0    3684.7047  -0.65959664 
    7150    16176.722    990.51546            0    3686.6358    15.386722 
    7200    21128.509    163.82657            0    3685.2447    1.7342943 
    7250    20387.167    287.21912            0    3685.0802    13.107424 
    7300    21107.806    166.79588            0    3684.7635   -12.888595 
    7350    18861.885    541.95604            0    3685.6035    9.8984005 
    7400    21100.901    168.64904            0    3685.4659    1.2824875 
    7450    19830.918    379.89887            0    3685.0519   -11.434794 
    7500    20017.737    349.12706            0    3685.4166   -5.5744397 
    7550    20053.066     343.1672            0    3685.3449   -1.2533266 
    7600     21308.94     133.9646            0    3685.4545 -0.084865304 
    7650    22008.297    17.379157            0    3685.4287     -3.46502 
    7700    20448.443    277.28803            0    3685.3619   -6.3242712 
    7750     17788.69     720.6922            0    3685.4738    -2.717425 
    7800    21319.345     131.8482            0    3685.0723   -16.706196 
    7850    21681.599    71.307491            0    3684.9074   -4.3089548 
    7900    20238.639    312.03407            0    3685.1406   -9.2744538 
    7950    20176.087    321.41462            0    3684.0957    4.4537874 
    8000    17924.863    697.78362            0    3685.2607    5.4139277 
    8050    21571.859    89.045512            0    3684.3554   -5.5413375 
    8100    16541.321    926.11855            0    3683.0054    21.540686 
    8150    20887.051    202.87724            0    3684.0524    1.2052433 
    8200    18992.043    517.04371            0    3682.3842   -4.3238601 
    8250    20975.403     186.9612            0    3682.8616   -10.393751 
    8300    18811.756     545.0326            0    3680.3253    22.759546 
    8350    20186.407    317.84183            0     3682.243   -5.7737469 
    8400     18577.89    586.56108            0    3682.8761    3.5594067 
    8450    20649.604    241.33179            0    3682.9325    7.1271522 
    8500    21694.017    67.435785            0    3683.1053     4.725334 
    8550    21672.655    71.097675            0    3683.2068    7.8421041 
    8600    19684.128     402.6075            0    3683.2954   -6.8463317 
    8650    20988.491    185.07016            0     3683.152     -2.66396 
    8700    16734.823     895.6885            0    3684.8257    25.453416 
    8750    20559.471    256.66501            0    3683.2434   -3.6644056 
    8800     21563.37    89.374494            0    3683.2695   -14.776893 
    8850    18396.127    617.41303            0    3683.4343   -11.253346 
    8900    19009.124    514.65017            0    3682.8375   -13.964053 
    8950    20731.323    227.39438            0    3682.6148   -4.2899059 
    9000    17209.381    811.08721            0    3679.3173    27.082739 
    9050    21292.737    133.70236            0    3682.4919    1.5066917 
    9100    20184.837    317.87278            0    3682.0122    2.4504601 
    9150    19334.655    459.01372            0    3681.4562    8.9249734 
    9200    18211.337    645.38821            0     3680.611   -5.1586566 
    9250    18638.591    574.76006            0    3681.1918    8.3867424 
    9300    20072.775    335.67252            0     3681.135   -0.6864477 
    9350    20908.524    195.99943            0    3680.7534    2.6752992 
    9400    17760.973    721.30946            0    3681.4716   -7.4378094 
    9450    21338.043    124.52946            0      3680.87   -1.7804467 
    9500     21362.02    120.50297            0    3680.8396   -3.6237431 
    9550    20640.073    240.49284            0     3680.505   -7.5149727 
    9600    19860.111    370.95995            0    3680.9785    5.2311898 
    9650    21392.261    115.27133            0    3680.6482   -8.3249604 
    9700    20800.735    213.36671            0    3680.1559   -14.305267 
    9750    21721.352    59.721709            0    3679.9471    -5.302608 
    9800    20307.441    294.77559            0    3679.3491   -15.997624 
    9850    19224.428    474.94569            0     3679.017   0.95539103 
    9900    20040.995    338.97958            0    3679.1454    17.419047 
    9950    16149.609    987.87172            0    3679.4732   -4.0737765 
   10000    18888.907    529.42343            0    3677.5746     2.385296 
Loop time of 3.12497 on 8 procs for 10000 steps with 81 atoms

Performance: 27648.250 tau/day, 3200.029 timesteps/s
99.9% CPU use with 8 MPI tasks x no OpenMP threads

MPI task timing breakdown:
Section |  min time  |  avg time  |  max time  |%varavg| %total
---------------------------------------------------------------
Pair    | 0.0010573  | 0.018466   | 0.079469   |  18.9 |  0.59
Neigh   | 0.0033002  | 0.014513   | 0.052606   |  13.3 |  0.46
Comm    | 0.10675    | 0.24425    | 0.46365    |  22.8 |  7.82
Output  | 0.0047623  | 0.0062513  | 0.0073846  |   0.9 |  0.20
Modify  | 2.5514     | 2.8        | 2.9373     |   8.4 | 89.60
Other   |            | 0.04147    |            |       |  1.33

Nlocal:    10.125 ave 59 max 0 min
Histogram: 5 1 1 0 0 0 0 0 0 1
Nghost:    21.375 ave 65 max 1 min
Histogram: 4 0 0 1 0 1 1 0 0 1
Neighs:    107.625 ave 780 max 0 min
Histogram: 7 0 0 0 0 0 0 0 0 1

Total # of neighbors = 861
Ave neighs/atom = 10.6296
Neighbor list builds = 990
Dangerous builds = 927

Please see the log.cite file for references relevant to this simulation

Total wall time: 0:00:03
