LAMMPS (24 Aug 2020)
# Simple rigid body system

units		lj
atom_style	atomic

pair_style	lj/cut 2.5

read_data	data.rigid
Reading data file ...
  orthogonal box = (-12.000000 -12.000000 -12.000000) to (12.000000 12.000000 12.000000)
  2 by 2 by 2 MPI processor grid
  reading atoms ...
  81 atoms
  read_data CPU = 0.001 seconds

velocity 	all create 100.0 4928459

# unconnected bodies

#group		clump1 id <> 1 9
#group		clump2 id <> 10 18
#group		clump3 id <> 19 27
#group		clump4 id <> 28 36
#group		clump5 id <> 37 45
#group		clump6 id <> 46 54
#group		clump7 id <> 55 63
#group		clump8 id <> 64 72
#group		clump9 id <> 73 81

#fix 1 all rigid group 9 clump1 clump2 clump3 clump4 clump5 #	  	      clump6 clump7 clump8 clump9

# 1 chain of connected bodies

#group		clump1 id <> 1 9
#group		clump2 id <> 9 18
#group		clump3 id <> 18 27
#group		clump4 id <> 27 36
#group		clump5 id <> 36 45
#group		clump6 id <> 45 54
#group		clump7 id <> 54 63
#group		clump8 id <> 63 72
#group		clump9 id <> 72 81

#fix 1 all poems group clump1 clump2 clump3 clump4 clump5 #	  	      clump6 clump7 clump8 clump9

# 2 chains of connected bodies

group		clump1 id <> 1 9
9 atoms in group clump1
group		clump2 id <> 9 18
10 atoms in group clump2
group		clump3 id <> 18 27
10 atoms in group clump3
group		clump4 id <> 27 36
10 atoms in group clump4
group		clump5 id <> 37 45
9 atoms in group clump5
group		clump6 id <> 45 54
10 atoms in group clump6
group		clump7 id <> 54 63
10 atoms in group clump7
group		clump8 id <> 63 72
10 atoms in group clump8
group		clump9 id <> 72 81
10 atoms in group clump9

fix 1 all poems group clump1 clump2 clump3 clump4
1 clusters, 4 bodies, 3 joints, 36 atoms
fix 2 all poems group clump5 clump6 clump7 clump8 clump9
1 clusters, 5 bodies, 4 joints, 45 atoms

neigh_modify	exclude group clump1 clump1
neigh_modify	exclude group clump2 clump2
neigh_modify	exclude group clump3 clump3
neigh_modify	exclude group clump4 clump4
neigh_modify	exclude group clump5 clump5
neigh_modify	exclude group clump6 clump6
neigh_modify	exclude group clump7 clump7
neigh_modify	exclude group clump8 clump8
neigh_modify	exclude group clump9 clump9

thermo		100

#dump		1 all atom 50 dump.rigid.poems2

#dump		2 all image 100 image.*.jpg type type #		axes yes 0.8 0.02 view 60 -30
#dump_modify	2 pad 5

#dump		3 all movie 100 movie.mpg type type #		axes yes 0.8 0.02 view 60 -30
#dump_modify	3 pad 5

timestep 	0.0001
thermo		50
run		10000
WARNING: More than one fix poems (src/POEMS/fix_poems.cpp:356)
WARNING: More than one fix poems (src/POEMS/fix_poems.cpp:356)
WARNING: One or more atoms are time integrated more than once (src/modify.cpp:285)
Neighbor list info ...
  update every 1 steps, delay 10 steps, check yes
  max neighbors/atom: 2000, page size: 100000
  master list distance cutoff = 2.8
  ghost atom cutoff = 2.8
  binsize = 1.4, bins = 18 18 18
  1 neighbor lists, perpetual/occasional/extra = 1 0 0
  (1) pair lj/cut, perpetual
      attributes: half, newton on
      pair build: half/bin/atomonly/newton
      stencil: half/bin/3d/newton
      bin: standard
Per MPI rank memory allocation (min/avg/max) = 4.069 | 4.085 | 4.195 Mbytes
Step Temp E_pair E_mol TotEng Press 
       0    196.00047    3632.2347            0    3668.5311   -2.7403788 
      50    12167.633    1505.5478            0    3758.8133    35.125973 
     100    17556.978    512.66277            0    3763.9549    11.137534 
     150    19579.586    138.04942            0    3763.8987   -29.953971 
     200     19757.51    105.30542            0    3764.1036 -0.030645317 
     250    18218.374    390.10747            0    3763.8804    13.711001 
     300    19383.039    174.40688            0    3763.8586    5.7240693 
     350    20125.986    36.972611            0    3764.0071    1.9559205 
     400    18888.816    266.10975            0    3764.0386    9.6362168 
     450    19307.656     188.2511            0     3763.743    1.9326206 
     500    16331.197    738.56392            0    3762.8597    9.1715579 
     550    19318.722    186.16172            0    3763.7027    3.0115336 
     600    19455.268    161.20621            0    3764.0336   0.55208034 
     650    18487.011    340.03216            0    3763.5528   -8.0359122 
     700    17321.201    556.32471            0    3763.9545   -13.631751 
     750    18979.187    249.04389            0    3763.7082   -2.6072455 
     800    19342.456    181.85552            0    3763.7918    8.1918726 
     850    19070.641    232.19342            0    3763.7936    7.3148472 
     900    19478.873    156.65987            0    3763.8586    2.4284987 
     950    19912.415    76.437437            0    3763.9216   -1.4667227 
    1000    16003.749    802.39753            0    3766.0548    46.642188 
    1050    19859.583     86.64176            0    3764.3424   -2.1961943 
    1100    19229.575    203.61488            0    3764.6473   -10.632365 
    1150      18821.6    279.15861            0      3764.64  -0.89495035 
    1200    19392.695    173.59744            0    3764.8373    1.8508753 
    1250    16459.624    717.32104            0    3765.3995    33.478127 
    1300    19343.863    182.59043            0    3764.7874   0.75890736 
    1350    20019.643    57.503573            0    3764.8448   0.31444671 
    1400    18549.582    329.31436            0    3764.4221    10.738304 
    1450    15163.926    957.47583            0    3765.6103   -17.923459 
    1500    19223.688    204.15166            0    3764.0939   -1.6134544 
    1550    18147.996    404.12675            0    3764.8668    8.4194765 
    1600    18615.043    317.42463            0    3764.6548   -2.3288998 
    1650    20120.654    38.887952            0     3764.935   -8.7620186 
    1700    19450.905    162.98306            0    3765.0025    2.3254664 
    1750    19374.633    177.37933            0    3765.2744    8.9328788 
    1800    19424.403    167.93979            0    3765.0514  0.081240786 
    1850    17936.422    442.81026            0    3764.3699     6.600588 
    1900    19982.597    64.405842            0    3764.8868    -2.953062 
    1950    16216.124    761.86177            0    3764.8477    13.993392 
    2000    18584.335    322.13648            0    3763.6799    7.1656404 
    2050    20107.967    41.025418            0     3764.723  -0.31098026 
    2100    20002.369    60.586386            0    3764.7288   -6.7918989 
    2150    16949.341    626.67423            0    3765.4411    3.5103993 
    2200     20010.95    58.808866            0    3764.5403   -10.862402 
    2250     18982.72    247.01071            0    3762.3292  -0.53775188 
    2300    18401.451    354.85147            0    3762.5276     1.091674 
    2350    19390.454    172.95455            0    3763.7793   -3.3528889 
    2400    16083.211    785.94147            0    3764.3139   -16.192946 
    2450    18871.291    268.58757            0    3763.2711    11.182684 
    2500    19686.649    117.88669            0    3763.5624    4.3971861 
    2550    18874.517    268.10239            0    3763.3834    -5.649317 
    2600    17013.136     612.8595            0    3763.4402    6.3325434 
    2650    18788.869    284.45755            0    3763.8778    2.3690618 
    2700    19730.001    109.47676            0    3763.1806  -0.26602817 
    2750    19464.925    158.83104            0    3763.4468    -1.565305 
    2800    18401.707    354.34665            0    3762.0701    21.225583 
    2850    18948.545    254.02105            0    3763.0108    2.4247951 
    2900    20107.837    39.556962            0    3763.2305  -0.30983372 
    2950    15722.077    851.75031            0    3763.2461    16.822799 
    3000     17592.34    505.20491            0    3763.0456    2.8598238 
    3050     18912.98    260.92519            0    3763.3289     3.825962 
    3100    15910.087    817.40781            0    3763.7202    16.545651 
    3150     19530.31    146.43049            0    3763.1545    -15.07189 
    3200    19975.622    63.933606            0    3763.1229   -9.6013749 
    3250    16003.253    800.04962            0    3763.6149    16.578276 
    3300    19069.429    231.80841            0    3763.1842    3.7250839 
    3350    17067.161    602.75177            0    3763.3372    17.611586 
    3400     18539.54    329.96058            0    3763.2087    9.5022574 
    3450    19364.908    176.91516            0    3763.0092   -5.2640161 
    3500    18655.167    308.24724            0    3762.9078  -0.52061589 
    3550    20099.584    41.046861            0    3763.1921  -0.67736893 
    3600    18617.029    315.49929            0    3763.0972 -0.063202944 
    3650    19508.113    150.62553            0    3763.2391    -1.112912 
    3700    19908.123     76.54146            0     3763.231   0.58166261 
    3750        19343    181.05561            0    3763.0926    -3.114793 
    3800    18067.174    417.46944            0    3763.2423   -6.9318658 
    3850    19819.661    92.785756            0    3763.0933    1.4432348 
    3900    19210.949    205.51589            0    3763.0991    6.2660758 
    3950    18291.708    375.41468            0     3762.768    1.3807257 
    4000    18754.751    289.96202            0    3763.0641   -4.0925728 
    4050    19440.664    162.89129            0    3763.0143    1.6714994 
    4100    19361.392    177.67849            0    3763.1214     3.803416 
    4150    18587.021    320.88829            0    3762.9292    20.625476 
    4200    20008.273    57.822701            0    3763.0584   -2.2380668 
    4250     17514.62    520.26282            0     3763.711    19.448671 
    4300    19094.822    226.66509            0    3762.7432  -0.10761525 
    4350    18618.118    314.75942            0    3762.5591    11.746786 
    4400    19465.721     157.3102            0    3762.0734   -10.934851 
    4450    19921.423    73.829094            0    3762.9815   -5.4555299 
    4500    16132.663     775.6274            0    3763.1576   -5.8101135 
    4550    20111.752    38.507501            0    3762.9061   0.12410616 
    4600    18120.452    406.24297            0    3761.8822    23.703896 
    4650      17397.5    541.28308            0    3763.0423    3.8123879 
    4700    17667.625    491.07941            0    3762.8619   -3.8970917 
    4750    17278.442    562.92355            0    3762.6351   -0.6302125 
    4800    15588.934     875.9077            0    3762.7473    3.4464991 
    4850    17589.505    505.48781            0    3762.8036   -1.4996913 
    4900    18986.699    246.85317            0    3762.9085   -2.8560568 
    4950    19895.735    78.330141            0    3762.7255   -4.0402727 
    5000    20101.163    40.211322            0    3762.6489   -6.6650822 
    5050     18115.21    407.73624            0    3762.4047    7.3925564 
    5100    19777.367    100.35664            0    3762.8321    3.8506589 
    5150    14286.036    1117.9673            0    3763.5294    13.306984 
    5200    16256.522    751.67361            0    3762.1406  -0.95669354 
    5250     18012.43    426.92166            0    3762.5568   0.48510091 
    5300    19227.965    202.29676            0     3763.031  -0.26546863 
    5350    18927.701    257.51949            0    3762.6493    4.3413351 
    5400    19908.395    76.227732            0    3762.9675   0.56080985 
    5450    19759.345    103.97265            0    3763.1107  -0.94870128 
    5500    19533.633    145.76247            0     3763.102  -0.44661662 
    5550     19902.28    77.656635            0    3763.2641   -6.1605999 
    5600    19650.382    124.26049            0    3763.2202  -0.64413199 
    5650    19584.068    136.36486            0    3763.0441    3.0537677 
    5700    19771.399    101.51922            0    3762.8894     7.203788 
    5750    19107.317    224.51146            0    3762.9035     6.775553 
    5800    17178.212    581.41439            0    3762.5648   -8.8751448 
    5850    19195.898    208.17921            0    3762.9752   -9.7396516 
    5900    19847.816    87.487749            0    3763.0092   0.46911937 
    5950    19651.647     123.6481            0     3762.842    1.9373054 
    6000     19521.21    148.11746            0    3763.1563    3.0658371 
    6050    19016.236    241.47363            0    3762.9989   -4.2422594 
    6100    20093.455    42.161518            0    3763.1716   -12.653257 
    6150    19010.898      242.472            0    3763.0087    3.7656112 
    6200    17801.337    466.78303            0     3763.327    1.1263349 
    6250    19864.538    84.693073            0    3763.3112    1.9035769 
    6300    18754.261    290.39024            0    3763.4015   -10.620712 
    6350    20019.916    55.871523            0    3763.2635   -2.7013773 
    6400    19547.055    143.40066            0    3763.2256   0.60673212 
    6450     19467.82    157.91022            0    3763.0622   0.80879853 
    6500    19686.623    117.52097            0     3763.192    3.0130385 
    6550    19321.353    184.94705            0    3762.9754   0.49879532 
    6600    18642.811    310.75117            0    3763.1235   -4.0956115 
    6650    19263.998    195.82861            0    3763.2356   -2.3275238 
    6700    16994.408    616.02671            0    3763.1392    16.759777 
    6750    18838.242     274.1965            0    3762.7598    2.9248982 
    6800    18822.124    277.70298            0    3763.2815    3.6915408 
    6850     19269.26    194.71987            0    3763.1014  -0.74787413 
    6900    17994.412    431.11087            0    3763.4094    -10.86972 
    6950    16329.303    739.00501            0      3762.95    11.753056 
    7000    19638.507    126.59747            0    3763.3579  -0.12017169 
    7050    19401.565    170.43538            0    3763.3178    2.4229079 
    7100    19479.516    156.16272            0    3763.4806   0.13920646 
    7150    19625.025    129.11511            0     3763.379   0.34733451 
    7200    19174.896    212.58709            0    3763.4938  -0.35321682 
    7250    18506.868    336.03887            0    3763.2367   -5.0485751 
    7300    19671.961    120.42889            0    3763.3846   -3.0417328 
    7350    20016.112    56.724877            0    3763.4124   -1.7614255 
    7400     19599.02    133.98104            0    3763.4293    5.2219749 
    7450    17897.448    449.15917            0    3763.5013     7.870473 
    7500    19991.126    61.188537            0    3763.2488    1.2589279 
    7550    16991.855     617.0692            0    3763.7091   -9.2022264 
    7600    18888.573    265.15261            0    3763.0366   -3.7100023 
    7650    19742.307    107.19283            0    3763.1755    4.7882187 
    7700    19043.643    236.19014            0    3762.7907    7.8861638 
    7750    19507.354    150.76004            0     3763.233    5.4883644 
    7800    19387.397    172.98915            0    3763.2479   -1.3289956 
    7850    19085.491    229.02242            0    3763.3726    5.8541587 
    7900    18286.914    374.90387            0    3761.3694     15.11345 
    7950    19751.708    105.43153            0    3763.1552   -3.9813528 
    8000    18144.072    403.16782            0    3763.1812   -5.6152339 
    8050    19285.812    191.49233            0    3762.9391   0.14876488 
    8100    18395.234    356.16216            0     3762.687    6.9535578 
    8150    18834.289    274.76721            0    3762.5984   -3.1619372 
    8200    18285.763    376.94289            0    3763.1953     19.20118 
    8250     19507.72    150.55103            0    3763.0917   -9.1991455 
    8300    19924.688    73.275411            0    3763.0324    -1.850903 
    8350    19570.591    138.77893            0    3762.9625  0.023179588 
    8400     18382.26    358.94093            0    3763.0632    4.4522135 
    8450    19617.188    130.35737            0      3763.17    11.571812 
    8500     17136.84    589.36615            0    3762.8551    3.6100832 
    8550    19768.081    102.29769            0    3763.0535   -1.8118856 
    8600    18790.014    282.93177            0     3762.564   -4.4079531 
    8650    17188.342    579.61488            0    3762.6412    9.0911449 
    8700    18946.305    254.28441            0    3762.8594   -1.7728432 
    8750    19321.908    184.91214            0    3763.0433    3.0943251 
    8800     18589.26    320.60943            0     3763.065    11.030616 
    8850    18284.831    374.79619            0    3760.8761    5.2334256 
    8900    19473.684    156.56519            0     3762.803    2.0954472 
    8950    18552.074    327.71835            0    3763.2876   -2.3354541 
    9000    17057.417    604.27312            0     3763.054    7.2613338 
    9050    17510.239    520.65399            0    3763.2908    13.548129 
    9100    17493.406    523.52778            0    3763.0475    2.6807559 
    9150    19791.233    97.791178            0    3762.8343   -2.0395382 
    9200     19655.92    122.78891            0    3762.7741   -1.9410826 
    9250    19884.117    80.529585            0    3762.7735   -3.1302931 
    9300    19505.478    150.60267            0    3762.7282   0.38094035 
    9350    18422.539    350.38597            0    3761.9673    3.2902594 
    9400    15442.684    902.07266            0     3761.829  -0.10912157 
    9450    16741.647    661.87283            0    3762.1779   -7.9647262 
    9500    19813.149    93.818236            0    3762.9199   0.74575836 
    9550    20145.865    32.164348            0      3762.88   -1.8003083 
    9600    16738.746    663.14956            0    3762.9172    16.662004 
    9650     19893.72     78.64681            0    3762.6691   0.46982413 
    9700    19833.319    89.883166            0      3762.72    1.0141919 
    9750    19421.224    166.08311            0    3762.6061 -0.071159235 
    9800    19521.656    147.57533            0    3762.6968   -4.9188702 
    9850    18349.663    364.62365            0    3762.7094   -9.6562092 
    9900     19536.37    144.87809            0    3762.7244  -0.67636683 
    9950    19643.644     125.0496            0    3762.7615    3.1309398 
   10000    19484.768    154.49334            0    3762.7837    2.3434025 
Loop time of 15.2965 on 8 procs for 10000 steps with 81 atoms

Performance: 5648.336 tau/day, 653.743 timesteps/s
99.9% CPU use with 8 MPI tasks x no OpenMP threads

MPI task timing breakdown:
Section |  min time  |  avg time  |  max time  |%varavg| %total
---------------------------------------------------------------
Pair    | 0.0046138  | 0.01934    | 0.05253    |  10.6 |  0.13
Neigh   | 0.0065348  | 0.015433   | 0.03547    |   7.0 |  0.10
Comm    | 0.95366    | 2.2213     | 3.5193     |  62.3 | 14.52
Output  | 0.011176   | 0.016611   | 0.021958   |   2.9 |  0.11
Modify  | 11.28      | 12.709     | 14.166     |  29.1 | 83.08
Other   |            | 0.3149     |            |       |  2.06

Nlocal:        10.1250 ave          36 max           0 min
Histogram: 5 0 0 1 0 0 0 0 1 1
Nghost:        22.2500 ave          64 max           0 min
Histogram: 3 0 0 2 0 2 0 0 0 1
Neighs:        80.3750 ave         337 max           0 min
Histogram: 6 0 0 0 0 0 0 1 0 1

Total # of neighbors = 643
Ave neighs/atom = 7.9382716
Neighbor list builds = 994
Dangerous builds = 954

Please see the log.cite file for references relevant to this simulation

Total wall time: 0:00:15
