LAMMPS (8 Feb 2023)
# Pour 2d granular particles into container

dimension	2
atom_style	sphere
boundary	f fm p
newton		off
comm_modify	vel yes

region		reg block 0 100 0 50 -0.5 0.5 units box
create_box	1 reg
Created orthogonal box = (0 0 -0.5) to (100 50 0.5)
  4 by 2 by 1 MPI processor grid

neighbor	0.2 bin
neigh_modify	delay 0

# IMPORTANT NOTE: these values of stiffness (4000) and timestep (0.001)
# are used in this example file to produce a quick simulation and movie.
# More appropriate values for realistic simulations would be
# k = 4.0e5 and dt = 0.0001, as in bench/in.chute (if it were Hertzian).

pair_style      gran/hertz/history 4000.0 NULL 100.0 NULL 0.5 0
pair_coeff	* *

timestep	0.001

fix             1 all nve/sphere
fix		2 all gravity 1.0 spherical 0.0 -180.0
fix		xwalls all wall/gran hertz/history 4000.0 NULL 100.0 NULL 0 1 		xplane 0 100
fix		ywalls all wall/gran hertz/history 4000.0 NULL 100.0 NULL 0 1 		yplane 0 NULL

region          slab block 1.0 99.0 30 34.5 -0.5 0.5 units box
fix             ins all pour 1000 1 4767548 vol 0.4 10 	        diam range 0.5 1.0 region slab
Particle insertion: 224 every 3000 steps, 1000 by step 12001

fix             3 all enforce2d

compute		1 all erotate/sphere
thermo_style	custom step atoms ke c_1 vol
thermo		1000
thermo_modify	lost ignore norm no
compute_modify	thermo_temp dynamic/dof yes

#dump		id all atom 250 dump.pour

#dump		2 all image 500 image.*.jpg type type #		zoom 1.6 adiam 1.5
#dump_modify	2 pad 5

#dump		3 all movie 500 movie.mpg type type #		zoom 1.6 adiam 1.5
#dump_modify	3 pad 5

run		25000
Generated 0 of 0 mixed pair_coeff terms from geometric mixing rule
Neighbor list info ...
  update: every = 1 steps, delay = 0 steps, check = yes
  max neighbors/atom: 2000, page size: 100000
  master list distance cutoff = 1.2
  ghost atom cutoff = 1.2
  binsize = 0.6, bins = 167 84 2
  1 neighbor lists, perpetual/occasional/extra = 1 0 0
  (1) pair gran/hertz/history, perpetual
      attributes: half, newton off, size, history
      pair build: half/size/bin/newtoff
      stencil: full/bin/2d
      bin: standard
Per MPI rank memory allocation (min/avg/max) = 5.771 | 5.771 | 5.771 Mbytes
   Step        Atoms        KinEng          c_1           Volume    
         0           0  -0              0              5000         
      1000         224   202.80417      0              5000         
      2000         224   373.00249      0              5000         
      3000         224   599.26757      0              5000         
      4000         448   1078.4787      0              5000         
      5000         448   1589.4845      0              5000         
      6000         448   1743.8281      26.918824      5000         
WARNING: Less insertions than requested (src/GRANULAR/fix_pour.cpp:681)
      7000         669   1818.5075      88.370238      5000         
      8000         669   1850.1368      105.77613      5000         
      9000         669   1757.9791      107.52328      5000         
WARNING: Less insertions than requested (src/GRANULAR/fix_pour.cpp:681)
     10000         886   1792.8816      79.515458      5000         
     11000         886   1639.0755      64.104852      5000         
     12000         886   1541.1514      56.036681      5000         
     13000        1000   1466.3254      65.888121      5000         
     14000        1000   1279.8265      46.107312      5000         
     15000        1000   1148.9114      46.909342      5000         
     16000        1000   833.63934      43.886046      5000         
     17000        1000   572.64944      44.609679      5000         
     18000        1000   380.24193      40.877519      5000         
     19000        1000   196.59758      35.653448      5000         
     20000        1000   47.374195      21.823211      5000         
     21000        1000   25.700069      13.650427      5000         
     22000        1000   19.817839      11.620255      5000         
     23000        1000   17.085121      8.1395907      5000         
     24000        1000   13.824208      6.5847918      5000         
     25000        1000   11.553268      5.6758788      5000         
Loop time of 3.89078 on 8 procs for 25000 steps with 1000 atoms

Performance: 555158.206 tau/day, 6425.442 timesteps/s, 6.425 Matom-step/s
90.2% CPU use with 8 MPI tasks x no OpenMP threads

MPI task timing breakdown:
Section |  min time  |  avg time  |  max time  |%varavg| %total
---------------------------------------------------------------
Pair    | 0.010985   | 0.22822    | 0.45366    |  45.1 |  5.87
Neigh   | 0.018      | 0.077766   | 0.14143    |  21.1 |  2.00
Comm    | 0.48339    | 0.64952    | 0.82458    |  13.8 | 16.69
Output  | 0.0020712  | 0.0055374  | 0.024716   |   9.8 |  0.14
Modify  | 0.13179    | 0.44003    | 0.82356    |  43.5 | 11.31
Other   |            | 2.49       |            |       | 63.99

Nlocal:            125 ave         263 max           0 min
Histogram: 4 0 0 0 0 0 0 0 0 4
Nghost:          8.625 ave          25 max           0 min
Histogram: 4 0 0 0 2 0 0 0 1 1
Neighs:         299.25 ave         658 max           0 min
Histogram: 4 0 0 0 0 0 0 0 2 2

Total # of neighbors = 2394
Ave neighs/atom = 2.394
Neighbor list builds = 2074
Dangerous builds = 0
Total wall time: 0:00:04
