LAMMPS (24 Aug 2020)
# Pour 2d granular particles into container

dimension	2
atom_style	sphere
atom_modify     map array
boundary	f fm p
newton		off
comm_modify	vel yes cutoff 2.5

fix             prop all property/atom mol ghost yes

region		reg block 0 100 0 50 -0.5 0.5 units box
create_box	1 reg
Created orthogonal box = (0.0000000 0.0000000 -0.5) to (100.00000 50.000000 0.5)
  4 by 2 by 1 MPI processor grid

neighbor	0.2 bin
neigh_modify	delay 0

# IMPORTANT NOTE: these values of stiffness (4000) and timestep (0.001)
# are used in this example file to produce a quick simulation and movie.
# More appropriate values for realistic simulations would be
# k = 4.0e5 and dt = 0.0001, as in bench/in.chute (if it were Hertzian).

pair_style      gran/hertz/history 4000.0 NULL 100.0 NULL 0.5 0
pair_coeff	* *

timestep	0.001

fix		2 all gravity 1.0 spherical 0.0 -180.0
fix		xwalls all wall/gran hertz/history 4000.0 NULL 100.0 NULL 0 1 		xplane 0 100
fix		ywalls all wall/gran hertz/history 4000.0 NULL 100.0 NULL 0 1 		yplane 0 NULL

molecule        object molecule.vshape
Read molecule template object:
  1 molecules
  5 atoms with max type 1
  0 bonds with max type 0
  0 angles with max type 0
  0 dihedrals with max type 0
  0 impropers with max type 0
fix             3 all rigid/small molecule mol object
  create bodies CPU = 0.000 seconds
  0 rigid bodies with 0 atoms
  2.2360680 = max distance from body owner to body atom

# insure region size + molecule size does not overlap wall

region          slab block 3.0 97.0 30 34.5 -0.5 0.5 units box
fix             ins all pour 500 0 4767548 vol 0.8 10 	        region slab mol object rigid 3
Particle insertion: 26 every 3000 steps, 500 by step 57001

fix             4 all enforce2d

compute		1 all erotate/sphere
compute         Tsphere all temp/sphere
thermo_style	custom step atoms ke c_1 vol
thermo_modify	lost ignore norm no temp Tsphere
compute_modify	Tsphere dynamic/dof yes

thermo		1000

#dump		id all atom 100 tmp.dump

#variable        colors string #                "red green blue yellow white #                purple pink orange lime gray"
#variable	mol2 atom mol%10
#dump		2 all image 250 image.*.jpg v_mol2 type #		zoom 1.6 adiam 1.5
#dump_modify	2 pad 5 amap 0 10 sa 1 10 ${colors}

#variable        colors string #                "red green blue yellow white #                purple pink orange lime gray"
#variable	mol3 atom mol%10
#dump		3 all movie 250 movie.mpg v_mol3 type #		zoom 1.6 adiam 1.5
#dump_modify	3 pad 5 amap 0 10 sa 1 10 ${colors}

run	        25000
WARNING: Gravity may not be correctly applied to rigid bodies if they consist of overlapped particles (src/RIGID/fix_rigid_small.cpp:575)
Neighbor list info ...
  update every 1 steps, delay 0 steps, check yes
  max neighbors/atom: 2000, page size: 100000
  master list distance cutoff = 1.2
  ghost atom cutoff = 2.5
  binsize = 0.6, bins = 167 84 2
  1 neighbor lists, perpetual/occasional/extra = 1 0 0
  (1) pair gran/hertz/history, perpetual
      attributes: half, newton off, size, history
      pair build: half/size/bin/newtoff
      stencil: half/bin/2d/newtoff
      bin: standard
Per MPI rank memory allocation (min/avg/max) = 5.773 | 5.773 | 5.773 Mbytes
Step Atoms KinEng c_1 Volume 
       0        0           -0            0         5000 
    1000      130    248.65568  0.002050506         5000 
    2000      130    452.01354 0.0020557556         5000 
    3000      130    720.36849 0.0021462148         5000 
    4000      260    1281.7126 0.0021462148         5000 
    5000      260    1875.9602 0.0021462148         5000 
    6000      260    1742.7747    2.0692779         5000 
    7000      390    1860.2142    1.7515066         5000 
    8000      390    1853.6219    2.3354959         5000 
    9000      390    1749.6466    5.1516327         5000 
   10000      520    1860.4314    4.2186838         5000 
   11000      520    1636.9411     4.006706         5000 
   12000      520    1454.1835    4.3341069         5000 
   13000      650    1881.6358    3.9606372         5000 
   14000      650    1648.6494    3.8239413         5000 
   15000      650    1463.0973    2.9363978         5000 
   16000      780    1571.0119    3.9061208         5000 
   17000      780    1472.9412    2.0289707         5000 
   18000      780     1370.527    3.1038541         5000 
   19000      910    1433.6739    2.7599969         5000 
   20000      910    1375.3289    2.9545368         5000 
   21000      910    1183.7107    2.4689599         5000 
   22000     1040    1310.6912    1.8863667         5000 
   23000     1040    1181.4555    1.6666455         5000 
   24000     1040    1265.7142     2.215676         5000 
   25000     1170     1167.011    2.9561882         5000 
Loop time of 1.93808 on 8 procs for 25000 steps with 1170 atoms

Performance: 1114505.890 tau/day, 12899.374 timesteps/s
99.7% CPU use with 8 MPI tasks x no OpenMP threads

MPI task timing breakdown:
Section |  min time  |  avg time  |  max time  |%varavg| %total
---------------------------------------------------------------
Pair    | 0.12707    | 0.21503    | 0.32141    |  17.8 | 11.10
Neigh   | 0.013887   | 0.045292   | 0.085495   |  14.4 |  2.34
Comm    | 0.18066    | 0.22195    | 0.27528    |   6.3 | 11.45
Output  | 0.0020043  | 0.0022919  | 0.0040082  |   1.4 |  0.12
Modify  | 1.1053     | 1.1995     | 1.2739     |   6.4 | 61.89
Other   |            | 0.254      |            |       | 13.11

Nlocal:        146.250 ave         266 max          26 min
Histogram: 4 0 0 0 0 0 0 0 0 4
Nghost:        29.0000 ave          72 max           6 min
Histogram: 3 1 1 1 0 0 0 0 1 1
Neighs:        216.375 ave         417 max          21 min
Histogram: 4 0 0 0 0 0 0 0 1 3

Total # of neighbors = 1731
Ave neighs/atom = 1.4794872
Neighbor list builds = 1706
Dangerous builds = 0
Total wall time: 0:00:01
