LAMMPS (18 Jun 2019)
  using 1 OpenMP thread(s) per MPI task
# Pour granular particles into chute container, then induce flow

atom_style	sphere
boundary	p p fm
newton		off
comm_modify	vel yes

region		reg block -10 10 -10 10 -0.5 16 units box
create_box	1 reg
Created orthogonal box = (-10 -10 -0.5) to (10 10 16)
  2 by 2 by 2 MPI processor grid

neighbor	0.2 bin
neigh_modify	delay 0

# IMPORTANT NOTE: these values of stiffness (2000) and timestep (0.001)
# are used in this example file to produce a quick simulation and movie.
# More appropriate values for realistic simulations would be
# k = 2.0e5 and dt = 0.0001, as in bench/in.chute.

pair_style      gran/hooke/history 2000.0 NULL 50.0 NULL 0.5 0
pair_coeff	* *

timestep	0.001

fix		1 all nve/sphere
fix		2 all gravity 1.0 spherical 0.0 -180.0
fix		zlower all wall/gran hooke/history 2000.0 NULL 50.0 NULL 0.5 0 		zplane 0.0 2000.0

region		slab block -9.0 9.0 -9.0 9.0 10.0 15.0 units box
fix		ins all pour 3000 1 300719 vol 0.13 50 region slab
Particle insertion: 402 every 3162 steps, 3000 by step 22135

compute		1 all erotate/sphere
thermo_style	custom step atoms ke c_1 vol
thermo		1000
thermo_modify	lost ignore norm no
compute_modify	thermo_temp dynamic/dof yes

#dump		id all atom 1000 dump.pour

#dump		2 all image 1000 image.*.jpg type type #		axes yes 0.8 0.02 view 80 -30
#dump_modify	2 pad 5

#dump		3 all movie 1000 movie.mpg type type #		axes yes 0.8 0.02 view 80 -30
#dump_modify	3 pad 5

run		25000
Neighbor list info ...
  update every 1 steps, delay 0 steps, check yes
  max neighbors/atom: 2000, page size: 100000
  master list distance cutoff = 1.2
  ghost atom cutoff = 1.2
  binsize = 0.6, bins = 34 34 28
  1 neighbor lists, perpetual/occasional/extra = 1 0 0
  (1) pair gran/hooke/history, perpetual
      attributes: half, newton off, size, history
      pair build: half/size/bin/newtoff
      stencil: half/bin/3d/newtoff
      bin: standard
Per MPI rank memory allocation (min/avg/max) = 5.811 | 5.811 | 5.811 Mbytes
Step Atoms KinEng c_1 Volume 
       0        0           -0            0         6600 
    1000      402    768.04606            0         6600 
    2000      402    1407.1714            0         6600 
    3000      402     1373.819     15.59952         6600 
    4000      804    1737.1399    39.311164         6600 
    5000      804    1571.3184    67.501382         6600 
    6000      804    1318.6439    77.636174         6600 
    7000     1206    1521.9449    68.846126         6600 
    8000     1206    1386.7485    65.419656         6600 
    9000     1206    1274.3119    52.617113         6600 
   10000     1608    1469.6376    45.710211         6600 
   11000     1608    1308.2943    51.366325         6600 
   12000     1608    1115.5975    45.405801         6600 
   13000     2010    1187.3985    49.852603         6600 
   14000     2010    1173.4163    40.483543         6600 
   15000     2010    970.73498    43.067959         6600 
   16000     2412    1109.0894    44.168168         6600 
   17000     2412    1069.9167    43.976846         6600 
   18000     2412    865.01596    39.888841         6600 
   19000     2814    975.91351     38.20159         6600 
   20000     2814    938.26402    41.559914         6600 
   21000     2814    794.74673    38.213346         6600 
   22000     2814    542.00983    34.793702         6600 
   23000     3000     466.4491    34.257664         6600 
   24000     3000    330.46648    24.972266         6600 
   25000     3000    237.73843    18.513257         6600 
Loop time of 3.42706 on 8 procs for 25000 steps with 3000 atoms

Performance: 630277.446 tau/day, 7294.878 timesteps/s
98.3% CPU use with 8 MPI tasks x 1 OpenMP threads

MPI task timing breakdown:
Section |  min time  |  avg time  |  max time  |%varavg| %total
---------------------------------------------------------------
Pair    | 0.023362   | 0.8146     | 1.6492     |  87.6 | 23.77
Neigh   | 0.042296   | 0.1937     | 0.35213    |  33.8 |  5.65
Comm    | 0.3948     | 0.41648    | 0.43872    |   2.8 | 12.15
Output  | 0.00086737 | 0.0019768  | 0.0029807  |   2.2 |  0.06
Modify  | 0.13131    | 0.41917    | 0.71525    |  43.2 | 12.23
Other   |            | 1.581      |            |       | 46.14

Nlocal:    375 ave 744 max 13 min
Histogram: 4 0 0 0 0 0 0 0 0 4
Nghost:    215.125 ave 397 max 33 min
Histogram: 4 0 0 0 0 0 0 0 0 4
Neighs:    1782.75 ave 3597 max 1 min
Histogram: 4 0 0 0 0 0 0 0 0 4

Total # of neighbors = 14262
Ave neighs/atom = 4.754
Neighbor list builds = 1151
Dangerous builds = 0

unfix		ins
fix		2 all gravity 1.0 chute 26.0
run		25000
Per MPI rank memory allocation (min/avg/max) = 10.42 | 11.39 | 13.03 Mbytes
Step Atoms KinEng c_1 Volume 
   25000     3000    237.73843    18.513257         6600 
   26000     3000    83.086536    20.311208         6600 
   27000     3000    109.46216    11.465017         6600 
   28000     3000    199.36597    11.406372         6600 
   29000     3000    329.82278     13.27436         6600 
   30000     3000    526.19563    16.849357         6600 
   31000     3000    761.84465    25.061075         6600 
   32000     3000    1065.6933    29.543515         6600 
   33000     3000    1512.0961    37.628624         6600 
   34000     3000    1928.5095    43.350708         6600 
   35000     3000    2486.1684    53.927082         6600 
   36000     3000     3155.938     61.31253         6600 
   37000     3000    3859.0005     69.27297         6600 
   38000     3000     4600.186    79.575582         6600 
   39000     3000    5417.0135     93.74537         6600 
   40000     3000      6294.16    104.18593         6600 
   41000     3000    7325.5636    122.25808         6600 
   42000     3000     8383.703    133.13638         6600 
   43000     3000    9611.8697    137.86768         6600 
   44000     3000    10776.443    154.95461         6600 
   45000     3000    12143.231    180.73935         6600 
   46000     3000    13318.339    169.47191         6600 
   47000     3000    14592.665      192.083         6600 
   48000     3000    16061.511    220.86227         6600 
   49000     3000    17689.918    244.80785         6600 
   50000     3000    19627.205    276.77792         6600 
Loop time of 6.35794 on 8 procs for 25000 steps with 3000 atoms

Performance: 339732.562 tau/day, 3932.090 timesteps/s
98.2% CPU use with 8 MPI tasks x 1 OpenMP threads

MPI task timing breakdown:
Section |  min time  |  avg time  |  max time  |%varavg| %total
---------------------------------------------------------------
Pair    | 0.0031211  | 1.7852     | 3.5723     | 133.3 | 28.08
Neigh   | 0.0067806  | 0.2795     | 0.55419    |  51.6 |  4.40
Comm    | 0.56482    | 0.61369    | 0.66115    |   4.7 |  9.65
Output  | 0.00099277 | 0.0035295  | 0.006047   |   4.2 |  0.06
Modify  | 0.0086493  | 0.59355    | 1.1871     |  75.9 |  9.34
Other   |            | 3.082      |            |       | 48.48

Nlocal:    375 ave 761 max 0 min
Histogram: 4 0 0 0 0 0 0 0 0 4
Nghost:    210.125 ave 402 max 16 min
Histogram: 4 0 0 0 0 0 0 0 0 4
Neighs:    1853.88 ave 3791 max 0 min
Histogram: 4 0 0 0 0 0 0 0 0 4

Total # of neighbors = 14831
Ave neighs/atom = 4.94367
Neighbor list builds = 830
Dangerous builds = 0
Total wall time: 0:00:09
