LAMMPS (30 Oct 2019)
# Pour granular particles into chute container, then induce flow

atom_style	sphere
boundary	p p fm
newton		off
comm_modify	vel yes

region		reg block -10 10 -10 10 -0.5 16 units box
create_box	1 reg
Created orthogonal box = (-10 -10 -0.5) to (10 10 16)
  2 by 2 by 2 MPI processor grid

neighbor	0.2 bin
neigh_modify	delay 0

# IMPORTANT NOTE: these values of stiffness (2000) and timestep (0.001)
# are used in this example file to produce a quick simulation and movie.
# More appropriate values for realistic simulations would be
# k = 2.0e5 and dt = 0.0001, as in bench/in.chute.

pair_style      gran/hooke/history 2000.0 NULL 50.0 NULL 0.5 0
pair_coeff	* *

timestep	0.001

fix		1 all nve/sphere
fix		2 all gravity 1.0 spherical 0.0 -180.0
fix		zlower all wall/gran hooke/history 2000.0 NULL 50.0 NULL 0.5 0 		zplane 0.0 2000.0

region		slab block -9.0 9.0 -9.0 9.0 10.0 15.0 units box
fix		ins all pour 3000 1 300719 vol 0.13 50 region slab
Particle insertion: 402 every 3162 steps, 3000 by step 22135

compute		1 all erotate/sphere
thermo_style	custom step atoms ke c_1 vol
thermo		1000
thermo_modify	lost ignore norm no
compute_modify	thermo_temp dynamic/dof yes

#dump		id all atom 1000 dump.pour

#dump		2 all image 1000 image.*.jpg type type #		axes yes 0.8 0.02 view 80 -30
#dump_modify	2 pad 5

#dump		3 all movie 1000 movie.mpg type type #		axes yes 0.8 0.02 view 80 -30
#dump_modify	3 pad 5

run		25000
Neighbor list info ...
  update every 1 steps, delay 0 steps, check yes
  max neighbors/atom: 2000, page size: 100000
  master list distance cutoff = 1.2
  ghost atom cutoff = 1.2
  binsize = 0.6, bins = 34 34 28
  1 neighbor lists, perpetual/occasional/extra = 1 0 0
  (1) pair gran/hooke/history, perpetual
      attributes: half, newton off, size, history
      pair build: half/size/bin/newtoff
      stencil: half/bin/3d/newtoff
      bin: standard
Per MPI rank memory allocation (min/avg/max) = 5.812 | 5.812 | 5.812 Mbytes
Step Atoms KinEng c_1 Volume 
       0        0           -0            0         6600 
    1000      402     753.1301            0         6600 
    2000      402    1389.6785            0         6600 
    3000      402     1438.803    14.347147         6600 
    4000      804     1707.878    48.666006         6600 
    5000      804    1566.5514    72.160314         6600 
    6000      804    1289.2377    75.410695         6600 
    7000     1206    1562.2431    74.653038         6600 
    8000     1206    1485.3946    62.496362         6600 
    9000     1206    1228.1105    63.010812         6600 
   10000     1608    1328.3432    47.344583         6600 
   11000     1608    1242.3728    49.553195         6600 
   12000     1608    1136.1012    42.326084         6600 
   13000     2010     1242.443    48.428471         6600 
   14000     2010    1163.9957    45.651484         6600 
   15000     2010    1044.1989    47.457674         6600 
   16000     2412    1121.0035    45.480407         6600 
   17000     2412     1050.182    42.434908         6600 
   18000     2412     849.6022    38.945107         6600 
   19000     2814    958.48932    38.778313         6600 
   20000     2814    944.51097    39.364898         6600 
   21000     2814    825.95253    37.892119         6600 
   22000     2814    554.20507    36.190396         6600 
   23000     3000    427.85692    35.849305         6600 
   24000     3000    338.76575    21.911838         6600 
   25000     3000     237.7695    20.843554         6600 
Loop time of 3.40545 on 8 procs for 25000 steps with 3000 atoms

Performance: 634278.121 tau/day, 7341.182 timesteps/s
98.4% CPU use with 8 MPI tasks x no OpenMP threads

MPI task timing breakdown:
Section |  min time  |  avg time  |  max time  |%varavg| %total
---------------------------------------------------------------
Pair    | 0.022837   | 0.82844    | 1.6486     |  88.3 | 24.33
Neigh   | 0.042265   | 0.19434    | 0.34621    |  33.6 |  5.71
Comm    | 0.39529    | 0.40242    | 0.41055    |   0.7 | 11.82
Output  | 0.0008347  | 0.0020474  | 0.0031638  |   2.4 |  0.06
Modify  | 0.13461    | 0.42527    | 0.71869    |  42.9 | 12.49
Other   |            | 1.553      |            |       | 45.60

Nlocal:    375 ave 746 max 7 min
Histogram: 4 0 0 0 0 0 0 0 0 4
Nghost:    216.25 ave 406 max 29 min
Histogram: 4 0 0 0 0 0 0 0 0 4
Neighs:    1797.62 ave 3657 max 1 min
Histogram: 4 0 0 0 0 0 0 0 0 4

Total # of neighbors = 14381
Ave neighs/atom = 4.79367
Neighbor list builds = 1151
Dangerous builds = 0

unfix		ins
fix		2 all gravity 1.0 chute 26.0
run		25000
Per MPI rank memory allocation (min/avg/max) = 10.38 | 10.4 | 10.42 Mbytes
Step Atoms KinEng c_1 Volume 
   25000     3000     237.7695    20.843554         6600 
   26000     3000    84.449252    19.478804         6600 
   27000     3000    104.41749    11.650911         6600 
   28000     3000    191.36871    11.254904         6600 
   29000     3000    327.99021    13.289282         6600 
   30000     3000    500.83793    17.309493         6600 
   31000     3000    767.80959    25.056719         6600 
   32000     3000     1112.249    31.044078         6600 
   33000     3000    1508.6105    38.385825         6600 
   34000     3000     2018.245    42.601737         6600 
   35000     3000    2602.0686    47.658329         6600 
   36000     3000    3212.5946    57.975152         6600 
   37000     3000    3965.7354    74.374549         6600 
   38000     3000    4722.1148    81.667764         6600 
   39000     3000     5554.708    92.903714         6600 
   40000     3000      6528.73    107.82115         6600 
   41000     3000    7426.7417    112.70269         6600 
   42000     3000     8479.648    134.15444         6600 
   43000     3000     9585.783    134.80756         6600 
   44000     3000    10770.655    155.46243         6600 
   45000     3000    11989.532    163.48172         6600 
   46000     3000    13265.366    199.51272         6600 
   47000     3000     14844.33    204.51899         6600 
   48000     3000     16194.62    208.88331         6600 
   49000     3000    17678.325    207.01936         6600 
   50000     3000    18786.086    215.06236         6600 
Loop time of 6.41329 on 8 procs for 25000 steps with 3000 atoms

Performance: 336800.520 tau/day, 3898.154 timesteps/s
98.5% CPU use with 8 MPI tasks x no OpenMP threads

MPI task timing breakdown:
Section |  min time  |  avg time  |  max time  |%varavg| %total
---------------------------------------------------------------
Pair    | 0.0035443  | 1.7929     | 3.6096     | 133.6 | 27.96
Neigh   | 0.006803   | 0.28306    | 0.56279    |  51.9 |  4.41
Comm    | 0.60942    | 0.62908    | 0.64644    |   1.5 |  9.81
Output  | 0.00098228 | 0.0039014  | 0.0067551  |   4.5 |  0.06
Modify  | 0.0089545  | 0.59748    | 1.1967     |  76.1 |  9.32
Other   |            | 3.107      |            |       | 48.44

Nlocal:    375 ave 758 max 0 min
Histogram: 4 0 0 0 0 0 0 0 0 4
Nghost:    223.5 ave 420 max 26 min
Histogram: 4 0 0 0 0 0 0 0 0 4
Neighs:    1818 ave 3688 max 0 min
Histogram: 4 0 0 0 0 0 0 0 0 4

Total # of neighbors = 14544
Ave neighs/atom = 4.848
Neighbor list builds = 840
Dangerous builds = 0
Total wall time: 0:00:09
