LAMMPS (4 Jan 2019)
# Pour 2d granular particles into container

dimension	2
atom_style	sphere
boundary	f fm p
newton		off
comm_modify	vel yes

region		reg block 0 100 0 50 -0.5 0.5 units box
create_box	1 reg
Created orthogonal box = (0 0 -0.5) to (100 50 0.5)
  4 by 2 by 1 MPI processor grid

neighbor	0.2 bin
neigh_modify	delay 0

# IMPORTANT NOTE: these values of stiffness (4000) and timestep (0.001)
# are used in this example file to produce a quick simulation and movie.
# More appropriate values for realistic simulations would be
# k = 4.0e5 and dt = 0.0001, as in bench/in.chute (if it were Hertzian).

pair_style      gran/hertz/history 4000.0 NULL 100.0 NULL 0.5 0
pair_coeff	* *

timestep	0.001

fix             1 all nve/sphere
fix		2 all gravity 1.0 spherical 0.0 -180.0
fix		xwalls all wall/gran hertz/history 4000.0 NULL 100.0 NULL 0 1 		xplane 0 100
fix		ywalls all wall/gran hertz/history 4000.0 NULL 100.0 NULL 0 1 		yplane 0 NULL

region          slab block 1.0 99.0 30 34.5 -0.5 0.5 units box
fix             ins all pour 1000 1 4767548 vol 0.4 10 	        diam range 0.5 1.0 region slab
Particle insertion: 224 every 3000 steps, 1000 by step 12001

fix             3 all enforce2d

compute		1 all erotate/sphere
thermo_style	custom step atoms ke c_1 vol
thermo		1000
thermo_modify	lost ignore norm no
compute_modify	thermo_temp dynamic/dof yes

#dump		id all atom 250 dump.pour

#dump		2 all image 500 image.*.jpg type type #		zoom 1.6 adiam 1.5
#dump_modify	2 pad 5

#dump		3 all movie 500 movie.mpg type type #		zoom 1.6 adiam 1.5
#dump_modify	3 pad 5

run		25000
Neighbor list info ...
  update every 1 steps, delay 0 steps, check yes
  max neighbors/atom: 2000, page size: 100000
  master list distance cutoff = 1.2
  ghost atom cutoff = 1.2
  binsize = 0.6, bins = 167 84 2
  1 neighbor lists, perpetual/occasional/extra = 1 0 0
  (1) pair gran/hertz/history, perpetual
      attributes: half, newton off, size, history
      pair build: half/size/bin/newtoff
      stencil: half/bin/2d/newtoff
      bin: standard
Per MPI rank memory allocation (min/avg/max) = 5.77 | 5.77 | 5.77 Mbytes
Step Atoms KinEng c_1 Volume 
       0        0           -0            0         5000 
    1000      224    201.77464            0         5000 
    2000      224    372.42868            0         5000 
    3000      224    599.60221            0         5000 
    4000      448    1084.3752            0         5000 
    5000      448    1592.4543            0         5000 
    6000      448    1763.3153    37.274939         5000 
    7000      672     1805.206    89.331853         5000 
    8000      672    1778.0015    111.58381         5000 
    9000      672    1592.6805    97.550311         5000 
   10000      896     1631.962    76.905078         5000 
   11000      896    1590.1527    68.644553         5000 
   12000      896    1564.4702    60.119425         5000 
   13000     1000     1490.914    58.242281         5000 
   14000     1000    1257.4786    57.787747         5000 
   15000     1000    1048.8749    46.158501         5000 
   16000     1000    757.75628    44.201173         5000 
   17000     1000    477.08286    37.491282         5000 
   18000     1000    327.99602    30.287824         5000 
   19000     1000    218.12946    26.987346         5000 
   20000     1000    54.559634    21.921259         5000 
   21000     1000    24.389714     13.29309         5000 
   22000     1000     18.68536    10.006072         5000 
   23000     1000    14.843534    8.0581483         5000 
   24000     1000    13.033842    5.4144893         5000 
   25000     1000    7.1648585    4.0219754         5000 
Loop time of 0.886023 on 8 procs for 25000 steps with 1000 atoms

Performance: 2437860.139 tau/day, 28215.974 timesteps/s
99.9% CPU use with 8 MPI tasks x no OpenMP threads

MPI task timing breakdown:
Section |  min time  |  avg time  |  max time  |%varavg| %total
---------------------------------------------------------------
Pair    | 0.0062422  | 0.12504    | 0.25089    |  33.6 | 14.11
Neigh   | 0.011102   | 0.045384   | 0.083309   |  15.9 |  5.12
Comm    | 0.089186   | 0.10583    | 0.1177     |   3.0 | 11.94
Output  | 0.00057925 | 0.00084861 | 0.0010891  |   0.0 |  0.10
Modify  | 0.055981   | 0.17232    | 0.2922     |  27.0 | 19.45
Other   |            | 0.4366     |            |       | 49.28

Nlocal:    125 ave 271 max 0 min
Histogram: 4 0 0 0 0 0 0 0 1 3
Nghost:    9.125 ave 24 max 0 min
Histogram: 4 0 0 0 0 1 1 0 1 1
Neighs:    299.875 ave 652 max 0 min
Histogram: 4 0 0 0 0 0 0 0 1 3

Total # of neighbors = 2399
Ave neighs/atom = 2.399
Neighbor list builds = 2049
Dangerous builds = 0
Total wall time: 0:00:00
