LAMMPS (22 Oct 2020)
# Solvated 5-mer peptide

units		real
atom_style	full

pair_style	lj/charmm/coul/long 8.0 10.0 10.0
bond_style      harmonic
angle_style     charmm
dihedral_style  charmm
improper_style  harmonic
kspace_style	pppm 0.0001

read_data	data.peptide
Reading data file ...
  orthogonal box = (36.840194 41.013691 29.768095) to (64.211560 68.385058 57.139462)
  2 by 2 by 2 MPI processor grid
  reading atoms ...
  2004 atoms
  reading velocities ...
  2004 velocities
  scanning bonds ...
  3 = max bonds/atom
  scanning angles ...
  6 = max angles/atom
  scanning dihedrals ...
  14 = max dihedrals/atom
  scanning impropers ...
  1 = max impropers/atom
  reading bonds ...
  1365 bonds
  reading angles ...
  786 angles
  reading dihedrals ...
  207 dihedrals
  reading impropers ...
  12 impropers
Finding 1-2 1-3 1-4 neighbors ...
  special bond factors lj:    0.0      0.0      0.0     
  special bond factors coul:  0.0      0.0      0.0     
     4 = max # of 1-2 neighbors
     7 = max # of 1-3 neighbors
    14 = max # of 1-4 neighbors
    18 = max # of special neighbors
  special bonds CPU = 0.001 seconds
  read_data CPU = 0.018 seconds

neighbor	2.0 bin
neigh_modify	delay 5

timestep	2.0

group		peptide type <= 12
84 atoms in group peptide
group		one id 2 4 5 6
4 atoms in group one
group		two id 80 82 83 84
4 atoms in group two
group		ref id 37
1 atoms in group ref
group		colvar union one two ref
9 atoms in group colvar

fix		1 all nvt temp  275.0 275.0 100.0 tchain 1

shell "rm -f out*.colvars.*"
fix		2 all colvars peptide.colvars
fix		2a ref setforce 0.0 0.0 0.0

fix		4 all shake 0.0001 10 100 b 4 6 8 10 12 14 18 a 31
      19 = # of size 2 clusters
       6 = # of size 3 clusters
       3 = # of size 4 clusters
     640 = # of frozen angles
  find clusters CPU = 0.001 seconds

#dump		1 colvar custom 1 dump.colvar.lammpstrj id xu yu zu fx fy fz
#dump_modify 1 sort id

thermo_style	custom step temp etotal pe ke epair ebond f_2
thermo		10


run		100
PPPM initialization ...
  using 12-bit tables for long-range coulomb (src/kspace.cpp:328)
  G vector (1/distance) = 0.26872465
  grid = 15 15 15
  stencil order = 5
  estimated absolute RMS force accuracy = 0.022820853
  estimated relative force accuracy = 6.872432e-05
  using double precision FFTW3
  3d grid and FFT values/proc = 2744 512
Neighbor list info ...
  update every 1 steps, delay 5 steps, check yes
  max neighbors/atom: 2000, page size: 100000
  master list distance cutoff = 12
  ghost atom cutoff = 12
  binsize = 6, bins = 5 5 5
  1 neighbor lists, perpetual/occasional/extra = 1 0 0
  (1) pair lj/charmm/coul/long, perpetual
      attributes: half, newton on
      pair build: half/bin/newton
      stencil: half/bin/3d/newton
      bin: standard
colvars: Creating proxy instance
colvars: ----------------------------------------------------------------------
colvars: Initializing the collective variables module, version "2020-09-17".
colvars: Please cite Fiorin et al, Mol Phys 2013:
colvars:  https://dx.doi.org/10.1080/00268976.2013.813594
colvars: in any publication based on this calculation.
colvars: This version was built with the C++11 standard or higher.
colvars: Using LAMMPS interface, version "2020-04-07".
colvars: ----------------------------------------------------------------------
colvars: Reading new configuration from file "peptide.colvars":
colvars: # units = "" [default]
colvars: # smp = on [default]
colvars: # colvarsTrajFrequency = 1
colvars: # colvarsRestartFrequency = 1000
colvars: # scriptedColvarForces = off [default]
colvars: # scriptingAfterBiases = off [default]
colvars: ----------------------------------------------------------------------
colvars:   Initializing a new collective variable.
colvars:   # name = "one"
colvars:   Initializing a new "distance" component.
colvars:     # name = "" [default]
colvars:     # componentCoeff = 1 [default]
colvars:     # componentExp = 1 [default]
colvars:     # period = 0 [default]
colvars:     # wrapAround = 0 [default]
colvars:     # forceNoPBC = off [default]
colvars:     # scalable = on [default]
colvars:       Initializing atom group "group1".
colvars:       # name = "" [default]
colvars:       # centerReference = off [default]
colvars:       # rotateReference = off [default]
colvars:       # atomsOfGroup = "" [default]
colvars:       # indexGroup = "" [default]
colvars:       # psfSegID =  [default]
colvars:       # atomsFile = "" [default]
colvars:       # dummyAtom = ( 0 , 0 , 0 ) [default]
colvars:       # enableForces = on [default]
colvars:       # enableFitGradients = on [default]
colvars:       # printAtomIDs = off [default]
colvars:       Atom group "group1" defined with 4 atoms requested.
colvars:       Initializing atom group "group2".
colvars:       # name = "" [default]
colvars:       # centerReference = off [default]
colvars:       # rotateReference = off [default]
colvars:       # atomsOfGroup = "" [default]
colvars:       # indexGroup = "" [default]
colvars:       # psfSegID =  [default]
colvars:       # atomsFile = "" [default]
colvars:       # dummyAtom = ( 0 , 0 , 0 ) [default]
colvars:       # enableForces = on [default]
colvars:       # enableFitGradients = on [default]
colvars:       # printAtomIDs = off [default]
colvars:       Atom group "group2" defined with 1 atoms requested.
colvars:     # oneSiteSystemForce = off [default]
colvars:     # oneSiteTotalForce = off [default]
colvars:   All components initialized.
colvars:   # timeStepFactor = 1 [default]
colvars:   # width = 1 [default]
colvars:   # lowerBoundary = 0 [default]
colvars:   # upperBoundary = 0 [default]
colvars:   # hardLowerBoundary = on [default]
colvars:   # hardUpperBoundary = off [default]
colvars:   # expandBoundaries = off [default]
colvars:   # extendedLagrangian = off [default]
colvars:   # outputValue = on [default]
colvars:   # outputVelocity = off [default]
colvars:   # outputTotalForce = off [default]
colvars:   # outputAppliedForce = off [default]
colvars:   # subtractAppliedForce = off [default]
colvars:   # runAve = off [default]
colvars:   # corrFunc = off [default]
colvars: ----------------------------------------------------------------------
colvars:   Initializing a new collective variable.
colvars:   # name = "two"
colvars:   Initializing a new "distance" component.
colvars:     # name = "" [default]
colvars:     # componentCoeff = 1 [default]
colvars:     # componentExp = 1 [default]
colvars:     # period = 0 [default]
colvars:     # wrapAround = 0 [default]
colvars:     # forceNoPBC = off [default]
colvars:     # scalable = on [default]
colvars:       Initializing atom group "group1".
colvars:       # name = "" [default]
colvars:       # centerReference = off [default]
colvars:       # rotateReference = off [default]
colvars:       # atomsOfGroup = "" [default]
colvars:       # indexGroup = "" [default]
colvars:       # psfSegID =  [default]
colvars:       # atomsFile = "" [default]
colvars:       # dummyAtom = ( 0 , 0 , 0 ) [default]
colvars:       # enableForces = on [default]
colvars:       # enableFitGradients = on [default]
colvars:       # printAtomIDs = off [default]
colvars:       Atom group "group1" defined with 4 atoms requested.
colvars:       Initializing atom group "group2".
colvars:       # name = "" [default]
colvars:       # centerReference = off [default]
colvars:       # rotateReference = off [default]
colvars:       # atomsOfGroup = "" [default]
colvars:       # indexGroup = "" [default]
colvars:       # psfSegID =  [default]
colvars:       # atomsFile = "" [default]
colvars:       # dummyAtom = ( 0 , 0 , 0 ) [default]
colvars:       # enableForces = on [default]
colvars:       # enableFitGradients = on [default]
colvars:       # printAtomIDs = off [default]
colvars:       Atom group "group2" defined with 1 atoms requested.
colvars:     # oneSiteSystemForce = off [default]
colvars:     # oneSiteTotalForce = off [default]
colvars:   All components initialized.
colvars:   # timeStepFactor = 1 [default]
colvars:   # width = 1 [default]
colvars:   # lowerBoundary = 0 [default]
colvars:   # upperBoundary = 0 [default]
colvars:   # hardLowerBoundary = on [default]
colvars:   # hardUpperBoundary = off [default]
colvars:   # expandBoundaries = off [default]
colvars:   # extendedLagrangian = off [default]
colvars:   # outputValue = on [default]
colvars:   # outputVelocity = off [default]
colvars:   # outputTotalForce = off [default]
colvars:   # outputAppliedForce = off [default]
colvars:   # subtractAppliedForce = off [default]
colvars:   # runAve = off [default]
colvars:   # corrFunc = off [default]
colvars: ----------------------------------------------------------------------
colvars: Collective variables initialized, 2 in total.
colvars: ----------------------------------------------------------------------
colvars:   Initializing a new "harmonic" instance.
colvars:   # name = "h_pot"
colvars:   # colvars = { one, two }
colvars:   # stepZeroData = off [default]
colvars:   # outputEnergy = off [default]
colvars:   # outputFreq = 1000 [default]
colvars:   # timeStepFactor = 1 [default]
colvars:   # writeTISamples = off [default]
colvars:   # writeTIPMF = off [default]
colvars:   # centers = { 10, 10 }
colvars:   # targetCenters = { 10, 10 } [default]
colvars:   # outputCenters = off [default]
colvars:   # forceConstant = 100
colvars:   # targetForceConstant = -1 [default]
colvars:   The force constant for colvar "one" will be rescaled to 100 according to the specified width (1).
colvars:   The force constant for colvar "two" will be rescaled to 100 according to the specified width (1).
colvars: ----------------------------------------------------------------------
colvars: Collective variables biases initialized, 1 in total.
colvars: ----------------------------------------------------------------------
colvars: Collective variables module (re)initialized.
colvars: ----------------------------------------------------------------------
colvars: The restart output state file will be "rest.colvars.state".
colvars: The final output state file will be "out.colvars.state".
colvars: Opening trajectory file "out.colvars.traj".
colvars: Re-initialized atom group for variable "one":0/0. 4 atoms: total mass = 15.035, total charge = -2.77556e-17.
colvars: Re-initialized atom group for variable "one":0/1. 1 atoms: total mass = 12.011, total charge = 0.51.
colvars: Re-initialized atom group for variable "two":0/0. 4 atoms: total mass = 15.035, total charge = 0.16.
colvars: Re-initialized atom group for variable "two":0/1. 1 atoms: total mass = 12.011, total charge = 0.51.
colvars: Synchronizing (emptying the buffer of) trajectory file "out.colvars.traj".
SHAKE stats (type/ave/delta/count) on step 0
     4   2.22200   1.44264e-05       18
     6   1.99400   7.26967e-06        6
     8   2.16000   1.32536e-05        9
    10   2.22200   1.22749e-05       12
    12   2.16000   1.11767e-05        9
    14   1.92000   0.00000            1
    18   1.91441   4.37979e-05     1920
    31   313.558   0.00396029       640
Per MPI rank memory allocation (min/avg/max) = 15.39 | 15.50 | 15.78 Mbytes
Step Temp TotEng PotEng KinEng E_pair E_bond f_2 
       0    282.10052    -5237.458   -6372.3766    1134.9186    -6442.768    16.557152    292.14604 
      10    305.06149   -5058.8972   -6286.1901    1227.2929   -6413.1021      58.8499    103.38345 
      20    311.00516   -4999.0612    -6250.266    1251.2048   -6417.1021    47.695297    36.699695 
      30    314.22337   -4993.7012   -6257.8532     1264.152   -6421.9679    35.344144    10.563933 
      40    297.87491   -5020.8378   -6219.2184    1198.3805   -6389.8528    27.723133    3.8354517 
      50    304.02071   -5056.2576   -6279.3633    1223.1057   -6456.8214    55.459505   0.20678217 
      60    285.92576   -5104.0461    -6254.354    1150.3079   -6435.5814    32.767229   0.69352945 
      70    277.83519   -5163.9758   -6281.7345    1117.7587   -6447.7033    39.627168    11.433603 
      80    267.51495   -5206.4046    -6282.644    1076.2394   -6456.6369    31.611883    6.3554178 
      90    278.15579   -5245.3824    -6364.431    1119.0485   -6499.8063    28.849773   0.36941576 
SHAKE stats (type/ave/delta/count) on step 100
     4   2.22196   8.97155e-05       18
     6   1.99399   1.00568e-05        6
     8   2.15999   6.02345e-06        9
    10   2.22199   1.84253e-05       12
    12   2.15999   7.27130e-06        9
    14   1.91999   0.00000            1
    18   1.91440   3.36079e-05     1920
    31   313.560   0.0030599        640
     100    260.10613   -5292.6885   -6339.1215     1046.433   -6471.6734    25.362042   0.21987323 
colvars: Saving collective variables state to "out.colvars.state".
Loop time of 0.348581 on 8 procs for 100 steps with 2004 atoms

Performance: 49.572 ns/day, 0.484 hours/ns, 286.878 timesteps/s
94.0% CPU use with 8 MPI tasks x no OpenMP threads

MPI task timing breakdown:
Section |  min time  |  avg time  |  max time  |%varavg| %total
---------------------------------------------------------------
Pair    | 0.19353    | 0.20727    | 0.21673    |   1.7 | 59.46
Bond    | 4.9349e-05 | 0.00059958 | 0.0020139  |   0.0 |  0.17
Kspace  | 0.048286   | 0.057429   | 0.071356   |   3.2 | 16.47
Neigh   | 0.038413   | 0.038516   | 0.038608   |   0.0 | 11.05
Comm    | 0.020058   | 0.020532   | 0.021127   |   0.2 |  5.89
Output  | 0.00033634 | 0.00035522 | 0.00045565 |   0.0 |  0.10
Modify  | 0.021584   | 0.021675   | 0.021731   |   0.0 |  6.22
Other   |            | 0.002207   |            |       |  0.63

Nlocal:        250.500 ave         263 max         235 min
Histogram: 1 0 1 1 0 1 2 0 0 2
Nghost:        4925.75 ave        4965 max        4880 min
Histogram: 1 0 1 0 3 0 0 1 0 2
Neighs:        88529.6 ave       93144 max       82124 min
Histogram: 1 0 0 2 0 1 1 1 0 2

Total # of neighbors = 708237
Ave neighs/atom = 353.41168
Ave special neighs/atom = 2.3403194
Neighbor list builds = 12
Dangerous builds = 2

run     100
PPPM initialization ...
  using 12-bit tables for long-range coulomb (src/kspace.cpp:328)
  G vector (1/distance) = 0.26872465
  grid = 15 15 15
  stencil order = 5
  estimated absolute RMS force accuracy = 0.022820853
  estimated relative force accuracy = 6.872432e-05
  using double precision FFTW3
  3d grid and FFT values/proc = 2744 512
colvars: Re-initialized atom group for variable "one":0/0. 4 atoms: total mass = 15.035, total charge = -2.77556e-17.
colvars: Re-initialized atom group for variable "one":0/1. 1 atoms: total mass = 12.011, total charge = 0.51.
colvars: Re-initialized atom group for variable "two":0/0. 4 atoms: total mass = 15.035, total charge = 0.16.
colvars: Re-initialized atom group for variable "two":0/1. 1 atoms: total mass = 12.011, total charge = 0.51.
SHAKE stats (type/ave/delta/count) on step 100
     4   2.22196   8.97155e-05       18
     6   1.99399   1.00568e-05        6
     8   2.15999   6.02345e-06        9
    10   2.22199   1.84253e-05       12
    12   2.15999   7.27130e-06        9
    14   1.91999   0.00000            1
    18   1.91440   3.36079e-05     1920
    31   313.560   0.0030599        640
Per MPI rank memory allocation (min/avg/max) = 15.39 | 15.50 | 15.78 Mbytes
Step Temp TotEng PotEng KinEng E_pair E_bond f_2 
     100    260.10613   -5292.6885   -6339.1215     1046.433   -6471.6734    25.362042   0.21987323 
     110    266.26438   -5341.1991   -6412.4073    1071.2082   -6552.7551    33.573173    1.9229657 
     120    262.66604   -5386.2387   -6442.9704    1056.7317   -6587.5483    29.859587    2.7124812 
     130    252.83379   -5422.5401   -6439.7157    1017.1756   -6580.4703    25.979343    1.2031591 
     140    253.85111   -5452.1837   -6473.4521    1021.2684   -6609.4826    26.071651   0.30585517 
     150    261.31816   -5490.4725   -6541.7816    1051.3091   -6646.6075    16.258823    6.9051008 
     160     255.7352   -5521.5941   -6550.4423    1028.8483   -6658.1373    19.717399    12.339679 
     170    253.42527   -5540.0942   -6559.6494    1019.5552   -6656.6678    23.293812    10.290217 
     180    248.51161   -5550.3254   -6550.1125    999.78704   -6661.4235    26.200127    3.4336037 
     190    250.80862   -5555.2554   -6564.2835    1009.0281   -6666.1639     25.53634    3.3494286 
SHAKE stats (type/ave/delta/count) on step 200
     4   2.22200   1.81266e-06       18
     6   1.99400   7.79424e-07        6
     8   2.16000   1.08903e-06        9
    10   2.22200   2.96503e-07       12
    12   2.16000   4.69038e-07        9
    14   1.92000   0.00000            1
    18   1.91440   3.76471e-06     1920
    31   313.560   0.000411055      640
     200    251.50475   -5557.4251   -6569.2538    1011.8288   -6674.0845    24.804906    7.1387572 
colvars: Saving collective variables state to "out.colvars.state".
Loop time of 0.327564 on 8 procs for 100 steps with 2004 atoms

Performance: 52.753 ns/day, 0.455 hours/ns, 305.284 timesteps/s
97.1% CPU use with 8 MPI tasks x no OpenMP threads

MPI task timing breakdown:
Section |  min time  |  avg time  |  max time  |%varavg| %total
---------------------------------------------------------------
Pair    | 0.19464    | 0.20787    | 0.21743    |   1.8 | 63.46
Bond    | 4.9595e-05 | 0.00058829 | 0.0019724  |   0.0 |  0.18
Kspace  | 0.044601   | 0.053396   | 0.066362   |   3.5 | 16.30
Neigh   | 0.022539   | 0.0226     | 0.022683   |   0.0 |  6.90
Comm    | 0.018733   | 0.019325   | 0.01973    |   0.2 |  5.90
Output  | 0.00033555 | 0.00035296 | 0.00044201 |   0.0 |  0.11
Modify  | 0.020998   | 0.02112    | 0.021177   |   0.0 |  6.45
Other   |            | 0.002317   |            |       |  0.71

Nlocal:        250.500 ave         261 max         238 min
Histogram: 1 0 1 1 1 0 1 1 0 2
Nghost:        4919.12 ave        4961 max        4863 min
Histogram: 1 1 0 0 1 2 0 0 1 2
Neighs:        88510.4 ave       92988 max       84076 min
Histogram: 1 0 2 0 1 1 0 1 1 1

Total # of neighbors = 708083
Ave neighs/atom = 353.33483
Ave special neighs/atom = 2.3403194
Neighbor list builds = 7
Dangerous builds = 0

fix 2 all colvars peptide.colvars input out.colvars.state output out2
colvars: Resetting the Collective Variables module.

run     100
PPPM initialization ...
  using 12-bit tables for long-range coulomb (src/kspace.cpp:328)
  G vector (1/distance) = 0.26872465
  grid = 15 15 15
  stencil order = 5
  estimated absolute RMS force accuracy = 0.022820853
  estimated relative force accuracy = 6.872432e-05
  using double precision FFTW3
  3d grid and FFT values/proc = 2744 512
colvars: Creating proxy instance
colvars: ----------------------------------------------------------------------
colvars: Initializing the collective variables module, version "2020-09-17".
colvars: Please cite Fiorin et al, Mol Phys 2013:
colvars:  https://dx.doi.org/10.1080/00268976.2013.813594
colvars: in any publication based on this calculation.
colvars: This version was built with the C++11 standard or higher.
colvars: Using LAMMPS interface, version "2020-04-07".
colvars: ----------------------------------------------------------------------
colvars: Reading new configuration from file "peptide.colvars":
colvars: # units = "" [default]
colvars: # smp = on [default]
colvars: # colvarsTrajFrequency = 1
colvars: # colvarsRestartFrequency = 1000
colvars: # scriptedColvarForces = off [default]
colvars: # scriptingAfterBiases = off [default]
colvars: ----------------------------------------------------------------------
colvars:   Initializing a new collective variable.
colvars:   # name = "one"
colvars:   Initializing a new "distance" component.
colvars:     # name = "" [default]
colvars:     # componentCoeff = 1 [default]
colvars:     # componentExp = 1 [default]
colvars:     # period = 0 [default]
colvars:     # wrapAround = 0 [default]
colvars:     # forceNoPBC = off [default]
colvars:     # scalable = on [default]
colvars:       Initializing atom group "group1".
colvars:       # name = "" [default]
colvars:       # centerReference = off [default]
colvars:       # rotateReference = off [default]
colvars:       # atomsOfGroup = "" [default]
colvars:       # indexGroup = "" [default]
colvars:       # psfSegID =  [default]
colvars:       # atomsFile = "" [default]
colvars:       # dummyAtom = ( 0 , 0 , 0 ) [default]
colvars:       # enableForces = on [default]
colvars:       # enableFitGradients = on [default]
colvars:       # printAtomIDs = off [default]
colvars:       Atom group "group1" defined with 4 atoms requested.
colvars:       Initializing atom group "group2".
colvars:       # name = "" [default]
colvars:       # centerReference = off [default]
colvars:       # rotateReference = off [default]
colvars:       # atomsOfGroup = "" [default]
colvars:       # indexGroup = "" [default]
colvars:       # psfSegID =  [default]
colvars:       # atomsFile = "" [default]
colvars:       # dummyAtom = ( 0 , 0 , 0 ) [default]
colvars:       # enableForces = on [default]
colvars:       # enableFitGradients = on [default]
colvars:       # printAtomIDs = off [default]
colvars:       Atom group "group2" defined with 1 atoms requested.
colvars:     # oneSiteSystemForce = off [default]
colvars:     # oneSiteTotalForce = off [default]
colvars:   All components initialized.
colvars:   # timeStepFactor = 1 [default]
colvars:   # width = 1 [default]
colvars:   # lowerBoundary = 0 [default]
colvars:   # upperBoundary = 0 [default]
colvars:   # hardLowerBoundary = on [default]
colvars:   # hardUpperBoundary = off [default]
colvars:   # expandBoundaries = off [default]
colvars:   # extendedLagrangian = off [default]
colvars:   # outputValue = on [default]
colvars:   # outputVelocity = off [default]
colvars:   # outputTotalForce = off [default]
colvars:   # outputAppliedForce = off [default]
colvars:   # subtractAppliedForce = off [default]
colvars:   # runAve = off [default]
colvars:   # corrFunc = off [default]
colvars: ----------------------------------------------------------------------
colvars:   Initializing a new collective variable.
colvars:   # name = "two"
colvars:   Initializing a new "distance" component.
colvars:     # name = "" [default]
colvars:     # componentCoeff = 1 [default]
colvars:     # componentExp = 1 [default]
colvars:     # period = 0 [default]
colvars:     # wrapAround = 0 [default]
colvars:     # forceNoPBC = off [default]
colvars:     # scalable = on [default]
colvars:       Initializing atom group "group1".
colvars:       # name = "" [default]
colvars:       # centerReference = off [default]
colvars:       # rotateReference = off [default]
colvars:       # atomsOfGroup = "" [default]
colvars:       # indexGroup = "" [default]
colvars:       # psfSegID =  [default]
colvars:       # atomsFile = "" [default]
colvars:       # dummyAtom = ( 0 , 0 , 0 ) [default]
colvars:       # enableForces = on [default]
colvars:       # enableFitGradients = on [default]
colvars:       # printAtomIDs = off [default]
colvars:       Atom group "group1" defined with 4 atoms requested.
colvars:       Initializing atom group "group2".
colvars:       # name = "" [default]
colvars:       # centerReference = off [default]
colvars:       # rotateReference = off [default]
colvars:       # atomsOfGroup = "" [default]
colvars:       # indexGroup = "" [default]
colvars:       # psfSegID =  [default]
colvars:       # atomsFile = "" [default]
colvars:       # dummyAtom = ( 0 , 0 , 0 ) [default]
colvars:       # enableForces = on [default]
colvars:       # enableFitGradients = on [default]
colvars:       # printAtomIDs = off [default]
colvars:       Atom group "group2" defined with 1 atoms requested.
colvars:     # oneSiteSystemForce = off [default]
colvars:     # oneSiteTotalForce = off [default]
colvars:   All components initialized.
colvars:   # timeStepFactor = 1 [default]
colvars:   # width = 1 [default]
colvars:   # lowerBoundary = 0 [default]
colvars:   # upperBoundary = 0 [default]
colvars:   # hardLowerBoundary = on [default]
colvars:   # hardUpperBoundary = off [default]
colvars:   # expandBoundaries = off [default]
colvars:   # extendedLagrangian = off [default]
colvars:   # outputValue = on [default]
colvars:   # outputVelocity = off [default]
colvars:   # outputTotalForce = off [default]
colvars:   # outputAppliedForce = off [default]
colvars:   # subtractAppliedForce = off [default]
colvars:   # runAve = off [default]
colvars:   # corrFunc = off [default]
colvars: ----------------------------------------------------------------------
colvars: Collective variables initialized, 2 in total.
colvars: ----------------------------------------------------------------------
colvars:   Initializing a new "harmonic" instance.
colvars:   # name = "h_pot"
colvars:   # colvars = { one, two }
colvars:   # stepZeroData = off [default]
colvars:   # outputEnergy = off [default]
colvars:   # outputFreq = 1000 [default]
colvars:   # timeStepFactor = 1 [default]
colvars:   # writeTISamples = off [default]
colvars:   # writeTIPMF = off [default]
colvars:   # centers = { 10, 10 }
colvars:   # targetCenters = { 10, 10 } [default]
colvars:   # outputCenters = off [default]
colvars:   # forceConstant = 100
colvars:   # targetForceConstant = -1 [default]
colvars:   The force constant for colvar "one" will be rescaled to 100 according to the specified width (1).
colvars:   The force constant for colvar "two" will be rescaled to 100 according to the specified width (1).
colvars: ----------------------------------------------------------------------
colvars: Collective variables biases initialized, 1 in total.
colvars: ----------------------------------------------------------------------
colvars: Collective variables module (re)initialized.
colvars: ----------------------------------------------------------------------
colvars: ----------------------------------------------------------------------
colvars: Loading state from file "out.colvars.state".
colvars:   Restarting collective variable "one" from value: 10.0128
colvars:   Restarting collective variable "two" from value: 9.62236
colvars:   Restarting harmonic bias "h_pot" from step number 200.
colvars: ----------------------------------------------------------------------
colvars: The restart output state file will be "rest.colvars.state".
colvars: The final output state file will be "out2.colvars.state".
colvars: Opening trajectory file "out2.colvars.traj".
colvars: Setting initial step number from LAMMPS: 200
colvars: Re-initialized atom group for variable "one":0/0. 4 atoms: total mass = 15.035, total charge = -2.77556e-17.
colvars: Re-initialized atom group for variable "one":0/1. 1 atoms: total mass = 12.011, total charge = 0.51.
colvars: Re-initialized atom group for variable "two":0/0. 4 atoms: total mass = 15.035, total charge = 0.16.
colvars: Re-initialized atom group for variable "two":0/1. 1 atoms: total mass = 12.011, total charge = 0.51.
SHAKE stats (type/ave/delta/count) on step 200
     4   2.22200   1.81266e-06       18
     6   1.99400   7.79424e-07        6
     8   2.16000   1.08903e-06        9
    10   2.22200   2.96503e-07       12
    12   2.16000   4.69038e-07        9
    14   1.92000   0.00000            1
    18   1.91440   3.76471e-06     1920
    31   313.560   0.000411055      640
Per MPI rank memory allocation (min/avg/max) = 15.40 | 15.52 | 15.78 Mbytes
Step Temp TotEng PotEng KinEng E_pair E_bond f_2 
     200    251.50475   -5557.4251   -6569.2538    1011.8288   -6674.0845    24.804906    7.1387572 
     210    253.15303   -5538.5615   -6557.0214    1018.4599   -6672.0497    37.676621   0.61219488 
     220    245.19621    -5522.519   -6508.9679    986.44887   -6628.1899    36.657688  0.048643392 
     230    258.69885   -5495.7275   -6536.4988    1040.7713   -6658.2886    34.857911   0.22092559 
     240    260.79633   -5469.8677   -6519.0774    1049.2097   -6624.1799    31.576952    3.7574815 
     250    269.07527   -5438.3946   -6520.9113    1082.5167   -6616.4382    25.447675    8.6600022 
     260    266.01046   -5397.3485   -6467.5352    1070.1867   -6580.2896    26.871919    8.3323103 
     270    272.81307   -5350.8819   -6448.4362    1097.5543   -6563.8228    23.114196    10.973132 
     280    279.42264   -5307.9799   -6432.1251    1124.1452   -6557.3368    33.644022    8.5490489 
     290    286.85168   -5260.8409   -6414.8739     1154.033   -6515.6796    28.574838    5.9100102 
SHAKE stats (type/ave/delta/count) on step 300
     4   2.22201   1.79793e-05       18
     6   1.99401   1.02512e-05        6
     8   2.16001   1.85103e-05        9
    10   2.22201   9.98839e-06       12
    12   2.16001   8.84114e-06        9
    14   1.92002   0.00000            1
    18   1.91441   1.84450e-05     1920
    31   313.559   0.00168383       640
     300    291.52795   -5216.2878   -6389.1339    1172.8461   -6503.1274    27.889149    2.2482427 
colvars: Saving collective variables state to "out2.colvars.state".
Loop time of 0.342261 on 8 procs for 100 steps with 2004 atoms

Performance: 50.488 ns/day, 0.475 hours/ns, 292.175 timesteps/s
90.5% CPU use with 8 MPI tasks x no OpenMP threads

MPI task timing breakdown:
Section |  min time  |  avg time  |  max time  |%varavg| %total
---------------------------------------------------------------
Pair    | 0.19722    | 0.21118    | 0.22596    |   1.9 | 61.70
Bond    | 5.118e-05  | 0.0006023  | 0.0020252  |   0.0 |  0.18
Kspace  | 0.045324   | 0.05919    | 0.072866   |   3.3 | 17.29
Neigh   | 0.026356   | 0.026455   | 0.026492   |   0.0 |  7.73
Comm    | 0.019712   | 0.020124   | 0.02084    |   0.2 |  5.88
Output  | 0.00036238 | 0.00038436 | 0.00049658 |   0.0 |  0.11
Modify  | 0.021787   | 0.021863   | 0.021954   |   0.0 |  6.39
Other   |            | 0.002457   |            |       |  0.72

Nlocal:        250.500 ave         264 max         226 min
Histogram: 1 0 0 0 0 2 2 0 1 2
Nghost:        4950.38 ave        5021 max        4857 min
Histogram: 1 0 1 0 1 0 3 0 1 1
Neighs:        88519.0 ave       95177 max       82042 min
Histogram: 1 0 1 1 2 0 1 0 1 1

Total # of neighbors = 708152
Ave neighs/atom = 353.36926
Ave special neighs/atom = 2.3403194
Neighbor list builds = 8
Dangerous builds = 0

colvars: Resetting the Collective Variables module.

Please see the log.cite file for references relevant to this simulation

Total wall time: 0:00:01
