LAMMPS (30 Jun 2020)
# Solvated 5-mer peptide

units		real
atom_style	full

pair_style	lj/charmm/coul/long 8.0 10.0 10.0
bond_style      harmonic
angle_style     charmm
dihedral_style  charmm
improper_style  harmonic
kspace_style	pppm 0.0001

read_data	data.peptide
  orthogonal box = (36.840194 41.013691 29.768095) to (64.211560 68.385058 57.139462)
  2 by 2 by 2 MPI processor grid
  reading atoms ...
  2004 atoms
  reading velocities ...
  2004 velocities
  scanning bonds ...
  3 = max bonds/atom
  scanning angles ...
  6 = max angles/atom
  scanning dihedrals ...
  14 = max dihedrals/atom
  scanning impropers ...
  1 = max impropers/atom
  reading bonds ...
  1365 bonds
  reading angles ...
  786 angles
  reading dihedrals ...
  207 dihedrals
  reading impropers ...
  12 impropers
     4 = max # of 1-2 neighbors
     7 = max # of 1-3 neighbors
    14 = max # of 1-4 neighbors
    18 = max # of special neighbors
  special bonds CPU = 0.001 seconds
  read_data CPU = 0.016 seconds

neighbor	2.0 bin
neigh_modify	delay 5

timestep	2.0

group		peptide type <= 12
84 atoms in group peptide
group		one id 2 4 5 6
4 atoms in group one
group		two id 80 82 83 84
4 atoms in group two
group		ref id 37
1 atoms in group ref
group		colvar union one two ref
9 atoms in group colvar

fix		1 all nvt temp 275.0 275.0 100.0 tchain 1

fix		3a one spring couple ref 100.0 0.0 0.0 0.0 10.0
fix		3b two spring couple ref 100.0 0.0 0.0 0.0 10.0

fix		2a ref setforce 0.0 0.0 0.0

fix		4 all shake 0.0001 10 100 b 4 6 8 10 12 14 18 a 31
      19 = # of size 2 clusters
       6 = # of size 3 clusters
       3 = # of size 4 clusters
     640 = # of frozen angles
  find clusters CPU = 0.000 seconds

#dump		1 colvar custom 1 dump.spring.lammpstrj id xu yu zu fx fy fz
#dump_modify 1  sort id

variable sp equal f_3a+f_3b

thermo_style	custom step temp etotal pe ke epair ebond v_sp
thermo		10


run		100
PPPM initialization ...
  using 12-bit tables for long-range coulomb (src/kspace.cpp:330)
  G vector (1/distance) = 0.26872465
  grid = 15 15 15
  stencil order = 5
  estimated absolute RMS force accuracy = 0.022820853
  estimated relative force accuracy = 6.872432e-05
  using double precision FFTW3
  3d grid and FFT values/proc = 2744 512
Neighbor list info ...
  update every 1 steps, delay 5 steps, check yes
  max neighbors/atom: 2000, page size: 100000
  master list distance cutoff = 12
  ghost atom cutoff = 12
  binsize = 6, bins = 5 5 5
  1 neighbor lists, perpetual/occasional/extra = 1 0 0
  (1) pair lj/charmm/coul/long, perpetual
      attributes: half, newton on
      pair build: half/bin/newton
      stencil: half/bin/3d/newton
      bin: standard
SHAKE stats (type/ave/delta/count) on step 0
     4   1.11100   1.44264e-05       36
     6   0.996998  7.26967e-06       12
     8   1.08000   1.32536e-05       18
    10   1.11100   1.22749e-05       24
    12   1.08000   1.11767e-05       18
    14   0.96      0.00000            2
    18   0.957206  4.37979e-05     3840
    31   104.519   0.00396029      1920
Per MPI rank memory allocation (min/avg/max) = 15.39 | 15.5 | 15.78 Mbytes
Step Temp TotEng PotEng KinEng E_pair E_bond v_sp 
       0    282.10052    -5237.458   -6372.3766    1134.9186    -6442.768    16.557152    292.14604 
      10    305.06149   -5058.8972   -6286.1901    1227.2929   -6413.1021      58.8499    103.38345 
      20    311.00516   -4999.0612    -6250.266    1251.2048   -6417.1021    47.695297    36.699695 
      30    314.22337   -4993.7012   -6257.8532     1264.152   -6421.9679    35.344144    10.563933 
      40    297.87491   -5020.8378   -6219.2184    1198.3805   -6389.8528    27.723133    3.8354517 
      50    304.02071   -5056.2576   -6279.3633    1223.1057   -6456.8214    55.459505   0.20678217 
      60    285.92576   -5104.0461    -6254.354    1150.3079   -6435.5814    32.767229   0.69352945 
      70    277.83519   -5163.9758   -6281.7345    1117.7587   -6447.7033    39.627168    11.433603 
      80    267.51495   -5206.4046    -6282.644    1076.2394   -6456.6369    31.611883    6.3554178 
      90    278.15579   -5245.3824    -6364.431    1119.0485   -6499.8063    28.849773   0.36941576 
SHAKE stats (type/ave/delta/count) on step 100
     4   1.11098   8.97155e-05       36
     6   0.996996  1.00568e-05       12
     8   1.08000   6.02345e-06       18
    10   1.11100   1.84253e-05       24
    12   1.08000   7.27130e-06       18
    14   0.959996  0.00000            2
    18   0.957198  3.36079e-05     3840
    31   104.520   0.0030599       1920
     100    260.10613   -5292.6885   -6339.1215     1046.433   -6471.6734    25.362042   0.21987323 
Loop time of 0.357202 on 8 procs for 100 steps with 2004 atoms

Performance: 48.376 ns/day, 0.496 hours/ns, 279.954 timesteps/s
92.1% CPU use with 8 MPI tasks x no OpenMP threads

MPI task timing breakdown:
Section |  min time  |  avg time  |  max time  |%varavg| %total
---------------------------------------------------------------
Pair    | 0.13444    | 0.18846    | 0.24107    |  10.6 | 52.76
Bond    | 6.6999e-05 | 0.00075518 | 0.0026214  |   0.0 |  0.21
Kspace  | 0.040091   | 0.089786   | 0.14182    |  14.8 | 25.14
Neigh   | 0.040926   | 0.041056   | 0.041284   |   0.1 | 11.49
Comm    | 0.016909   | 0.019319   | 0.021583   |   1.4 |  5.41
Output  | 0.00039983 | 0.00042286 | 0.00054199 |   0.0 |  0.12
Modify  | 0.01603    | 0.01621    | 0.016368   |   0.1 |  4.54
Other   |            | 0.001198   |            |       |  0.34

Nlocal:        250.500 ave         263 max         235 min
Histogram: 1 0 1 1 0 1 2 0 0 2
Nghost:        4925.75 ave        4965 max        4880 min
Histogram: 1 0 1 0 3 0 0 1 0 2
Neighs:        88529.6 ave       93144 max       82124 min
Histogram: 1 0 0 2 0 1 1 1 0 2

Total # of neighbors = 708237
Ave neighs/atom = 353.41168
Ave special neighs/atom = 2.3403194
Neighbor list builds = 12
Dangerous builds = 2
Total wall time: 0:00:00
