LAMMPS (30 Jun 2020)
# Solvated 5-mer peptide

units		real
atom_style	full

pair_style	lj/charmm/coul/long 8.0 10.0 10.0
bond_style      harmonic
angle_style     charmm
dihedral_style  charmm
improper_style  harmonic
kspace_style	pppm 0.0001

read_data	data.peptide
  orthogonal box = (36.840194 41.013691 29.768095) to (64.211560 68.385058 57.139462)
  2 by 2 by 2 MPI processor grid
  reading atoms ...
  2004 atoms
  reading velocities ...
  2004 velocities
  scanning bonds ...
  3 = max bonds/atom
  scanning angles ...
  6 = max angles/atom
  scanning dihedrals ...
  14 = max dihedrals/atom
  scanning impropers ...
  1 = max impropers/atom
  reading bonds ...
  1365 bonds
  reading angles ...
  786 angles
  reading dihedrals ...
  207 dihedrals
  reading impropers ...
  12 impropers
     4 = max # of 1-2 neighbors
     7 = max # of 1-3 neighbors
    14 = max # of 1-4 neighbors
    18 = max # of special neighbors
  special bonds CPU = 0.001 seconds
  read_data CPU = 0.015 seconds

neighbor	2.0 bin
neigh_modify	delay 5

timestep	2.0

group		peptide type <= 12
84 atoms in group peptide
group		one id 2 4 5 6
4 atoms in group one
group		two id 80 82 83 84
4 atoms in group two
group		ref id 37
1 atoms in group ref
group		colvar union one two ref
9 atoms in group colvar

fix		1 all nvt temp  275.0 275.0 100.0 tchain 1

fix		3  one spring couple two 100.0 0.0 0.0 0.0 10.0

fix		4 all shake 0.0001 10 100 b 4 6 8 10 12 14 18 a 31
      19 = # of size 2 clusters
       6 = # of size 3 clusters
       3 = # of size 4 clusters
     640 = # of frozen angles
  find clusters CPU = 0.000 seconds

#dump		1 colvar custom 1 dump.spring2.lammpstrj id xu yu zu fx fy fz
#dump_modify 1  sort id

thermo_style	custom step temp etotal pe ke epair ebond f_3
thermo		10


run		100
PPPM initialization ...
  using 12-bit tables for long-range coulomb (src/kspace.cpp:330)
  G vector (1/distance) = 0.26872465
  grid = 15 15 15
  stencil order = 5
  estimated absolute RMS force accuracy = 0.022820853
  estimated relative force accuracy = 6.872432e-05
  using double precision FFTW3
  3d grid and FFT values/proc = 2744 512
Neighbor list info ...
  update every 1 steps, delay 5 steps, check yes
  max neighbors/atom: 2000, page size: 100000
  master list distance cutoff = 12
  ghost atom cutoff = 12
  binsize = 6, bins = 5 5 5
  1 neighbor lists, perpetual/occasional/extra = 1 0 0
  (1) pair lj/charmm/coul/long, perpetual
      attributes: half, newton on
      pair build: half/bin/newton
      stencil: half/bin/3d/newton
      bin: standard
SHAKE stats (type/ave/delta/count) on step 0
     4   1.11100   1.44264e-05       36
     6   0.996998  7.26967e-06       12
     8   1.08000   1.32536e-05       18
    10   1.11100   1.22749e-05       24
    12   1.08000   1.11767e-05       18
    14   0.96      0.00000            2
    18   0.957206  4.37979e-05     3840
    31   104.519   0.00396029      1920
Per MPI rank memory allocation (min/avg/max) = 15.39 | 15.5 | 15.78 Mbytes
Step Temp TotEng PotEng KinEng E_pair E_bond f_3 
       0    282.10052    -5237.458   -6372.3766    1134.9186    -6442.768    16.557152    273.74323 
      10    333.47919   -4982.3968   -6324.0169    1341.6201   -6400.4223    21.367762    12.393263 
      20    309.56902   -4999.4978   -6244.9249    1245.4271   -6401.6981     43.59542    13.004314 
      30     316.9763   -5025.5662   -6300.7935    1275.2273   -6422.5375    27.323196    6.7589585 
      40    297.55779   -5088.2204   -6285.3252    1197.1047    -6395.375      13.6769    25.625024 
      50    296.79994   -5117.2966   -6311.3525    1194.0558   -6451.8309    30.631241    5.3320863 
      60    281.72778   -5188.4969   -6321.9159     1133.419   -6427.8856    26.287723    20.574037 
      70    277.26053   -5224.8434   -6340.2902    1115.4468   -6447.8521    27.742893   0.69420283 
      80    268.01484   -5281.8509   -6360.1014    1078.2505   -6496.6086    20.300754    5.2607186 
      90    270.43472   -5334.0835   -6422.0694    1087.9859   -6563.2511    39.846095    1.1832272 
SHAKE stats (type/ave/delta/count) on step 100
     4   1.11096   0.000191462       36
     6   0.996989  3.55508e-05       12
     8   1.08000   9.09970e-06       18
    10   1.11100   1.58544e-05       24
    12   1.08000   5.80604e-06       18
    14   0.959997  0.00000            2
    18   0.957198  2.92445e-05     3840
    31   104.520   0.00239923      1920
     100    260.35636   -5387.2284   -6434.6681    1047.4397   -6534.1956    20.246866  0.075048487 
Loop time of 0.377372 on 8 procs for 100 steps with 2004 atoms

Performance: 45.790 ns/day, 0.524 hours/ns, 264.990 timesteps/s
93.0% CPU use with 8 MPI tasks x no OpenMP threads

MPI task timing breakdown:
Section |  min time  |  avg time  |  max time  |%varavg| %total
---------------------------------------------------------------
Pair    | 0.16946    | 0.21094    | 0.24507    |   6.2 | 55.90
Bond    | 0.00010928 | 0.00083665 | 0.0028164  |   0.0 |  0.22
Kspace  | 0.047837   | 0.080431   | 0.12102    |   9.7 | 21.31
Neigh   | 0.046204   | 0.046376   | 0.046567   |   0.1 | 12.29
Comm    | 0.018052   | 0.019533   | 0.021258   |   0.9 |  5.18
Output  | 0.0003742  | 0.00039932 | 0.00052987 |   0.0 |  0.11
Modify  | 0.017356   | 0.017476   | 0.017614   |   0.1 |  4.63
Other   |            | 0.001385   |            |       |  0.37

Nlocal:        250.500 ave         263 max         237 min
Histogram: 1 1 0 0 2 1 0 1 1 1
Nghost:        4934.75 ave        4960 max        4894 min
Histogram: 1 0 0 0 2 0 1 2 1 1
Neighs:        88529.2 ave       92369 max       83606 min
Histogram: 1 1 0 1 1 0 1 0 1 2

Total # of neighbors = 708234
Ave neighs/atom = 353.41018
Ave special neighs/atom = 2.3403194
Neighbor list builds = 13
Dangerous builds = 1
Total wall time: 0:00:00
