LAMMPS (4 Jan 2019)
# 2d LJ crack simulation

dimension	2
boundary	s s p

atom_style	atomic
neighbor	0.3 bin
neigh_modify	delay 5

# create geometry

lattice		hex 0.93
Lattice spacing in x,y,z = 1.11428 1.92998 1.11428
region		box block 0 100 0 40 -0.25 0.25
create_box	5 box
Created orthogonal box = (0 0 -0.278569) to (111.428 77.1994 0.278569)
  4 by 2 by 1 MPI processor grid
create_atoms	1 box
Created 8141 atoms
  Time spent = 0.00139979 secs

mass		1 1.0
mass		2 1.0
mass		3 1.0
mass		4 1.0
mass		5 1.0

# LJ potentials

pair_style	lj/cut 2.5
pair_coeff	* * 1.0 1.0 2.5

# define groups

region	        1 block INF INF INF 1.25 INF INF
group		lower region 1
302 atoms in group lower
region		2 block INF INF 38.75 INF INF INF
group		upper region 2
302 atoms in group upper
group		boundary union lower upper
604 atoms in group boundary
group		mobile subtract all boundary
7537 atoms in group mobile

region		leftupper block INF 20 20 INF INF INF
region		leftlower block INF 20 INF 20 INF INF
group		leftupper region leftupper
841 atoms in group leftupper
group		leftlower region leftlower
841 atoms in group leftlower

set		group leftupper type 2
  841 settings made for type
set		group leftlower type 3
  841 settings made for type
set		group lower type 4
  302 settings made for type
set		group upper type 5
  302 settings made for type

# initial velocities

compute	  	new mobile temp
velocity	mobile create 0.01 887723 temp new
velocity	upper set 0.0 0.3 0.0
velocity	mobile ramp vy 0.0 0.3 y 1.25 38.75 sum yes

# fixes

fix		1 all nve
fix		2 boundary setforce NULL 0.0 0.0

# run

timestep	0.003
thermo		200
thermo_modify	temp new
WARNING: Temperature for thermo pressure is not for group all (../thermo.cpp:488)

neigh_modify	exclude type 2 3

#dump		1 all atom 500 dump.crack

#dump		2 all image 250 image.*.jpg type type #		zoom 1.6 adiam 1.5
#dump_modify	2 pad 4

#dump		3 all movie 250 movie.mpg type type #		zoom 1.6 adiam 1.5
#dump_modify	3 pad 4

run		5000
Neighbor list info ...
  update every 1 steps, delay 5 steps, check yes
  max neighbors/atom: 2000, page size: 100000
  master list distance cutoff = 2.8
  ghost atom cutoff = 2.8
  binsize = 1.4, bins = 80 56 1
  1 neighbor lists, perpetual/occasional/extra = 1 0 0
  (1) pair lj/cut, perpetual
      attributes: half, newton on
      pair build: half/bin/atomonly/newton
      stencil: half/bin/2d/newton
      bin: standard
Per MPI rank memory allocation (min/avg/max) = 3.058 | 3.058 | 3.059 Mbytes
Step Temp E_pair E_mol TotEng Press Volume 
       0  0.066047328   -3.2595015            0   -3.1983625 -0.035892745    8605.5917 
     200  0.060326755   -3.2531914            0   -3.1973478  -0.23127488     8640.869 
     400  0.060906382   -3.2509816            0   -3.1946015  -0.42972093    8676.9349 
     600  0.060987583   -3.2466302            0   -3.1901749  -0.59989377     8718.565 
     800  0.061343178   -3.2412385            0    -3.184454  -0.74731057    8756.3963 
    1000   0.06200048   -3.2347815            0   -3.1773886  -0.87167569     8793.037 
    1200  0.063446994   -3.2275853            0   -3.1688534  -0.98509308    8818.7585 
    1400  0.065368948   -3.2196185            0   -3.1591075   -1.0727308    8854.5652 
    1600  0.067454398   -3.2109912            0   -3.1485497   -1.1493962    8888.4733 
    1800  0.069186186   -3.2016021            0   -3.1375575   -1.2061989    8921.2007 
    2000  0.071288742   -3.1919429            0    -3.125952   -1.2481828    8963.6767 
    2200  0.073243422    -3.181653            0   -3.1138527   -1.2720861    9000.3309 
    2400  0.075092243   -3.1709337            0   -3.1014219   -1.2820873    9031.2249 
    2600   0.07685383   -3.1598493            0   -3.0887069   -1.2795018    9071.6343 
    2800  0.078528484   -3.1484651            0   -3.0757724   -1.2724007    9104.6599 
    3000  0.080709331   -3.1372946            0   -3.0625832   -1.2508749    9135.1028 
    3200   0.08317966   -3.1258962            0    -3.048898   -1.2277432    9174.7149 
    3400  0.085387445   -3.1142417            0   -3.0351999   -1.1976643     9206.381 
    3600  0.087567387     -3.10226            0   -3.0212002   -1.1584285    9232.9836 
    3800  0.089307608   -3.0905046            0   -3.0078339   -1.1222961     9257.904 
    4000  0.089640671   -3.0785639            0   -2.9955849   -1.0853915     9276.063 
    4200  0.085458449   -3.0657258            0   -2.9866182   -1.0603012    9300.1287 
    4400  0.085891535    -3.054917            0   -2.9754085   -1.0643895     9326.053 
    4600  0.086481644   -3.0424018            0   -2.9623471   -1.0639666    9351.5774 
    4800   0.08932225   -3.0329234            0   -2.9502392   -1.0849507    9398.2215 
    5000  0.090577447   -3.0232918            0   -2.9394456   -1.0989298    9435.7215 
Loop time of 0.890295 on 8 procs for 5000 steps with 8141 atoms

Performance: 1455697.560 tau/day, 5616.117 timesteps/s
99.9% CPU use with 8 MPI tasks x no OpenMP threads

MPI task timing breakdown:
Section |  min time  |  avg time  |  max time  |%varavg| %total
---------------------------------------------------------------
Pair    | 0.5846     | 0.61375    | 0.63769    |   2.1 | 68.94
Neigh   | 0.033309   | 0.034715   | 0.036502   |   0.6 |  3.90
Comm    | 0.10586    | 0.12906    | 0.15384    |   4.5 | 14.50
Output  | 0.0005878  | 0.00065957 | 0.00081977 |   0.0 |  0.07
Modify  | 0.069114   | 0.070739   | 0.071317   |   0.2 |  7.95
Other   |            | 0.04137    |            |       |  4.65

Nlocal:    1017.62 ave 1052 max 983 min
Histogram: 1 0 0 3 1 1 0 0 0 2
Nghost:    211.5 ave 283 max 117 min
Histogram: 2 0 1 1 0 0 0 0 0 4
Neighs:    8928.62 ave 9507 max 8494 min
Histogram: 2 0 1 1 1 1 0 1 0 1

Total # of neighbors = 71429
Ave neighs/atom = 8.77398
Neighbor list builds = 101
Dangerous builds = 0
Total wall time: 0:00:00
