LAMMPS (4 Jan 2019)
# RDX coarse-grain model
##log             #log.multi-lucy
units           metal  # ev, ps
atom_style      dpd
atom_modify     map array

lattice         hcp 6.6520898 origin 0.0833333333333 0.25 0.25 orient z 1 0 0 orient x 0 1 0 orient y 0 0 1
Lattice spacing in x,y,z = 11.5218 10.8628 6.65209
variable        xrep equal 10.0
variable        yrep equal 10.0
variable        zrep equal 10.0
region          box block 0 ${xrep} 0 ${yrep} 0.0 ${zrep} units lattice
region          box block 0 10 0 ${yrep} 0.0 ${zrep} units lattice
region          box block 0 10 0 10 0.0 ${zrep} units lattice
region          box block 0 10 0 10 0.0 10 units lattice
create_box      2 box
Created orthogonal box = (0 0 0) to (115.218 108.628 66.5209)
  2 by 2 by 2 MPI processor grid
region          atoms block 0 ${xrep} 0 ${yrep} 0.0 ${zrep} units lattice
region          atoms block 0 10 0 ${yrep} 0.0 ${zrep} units lattice
region          atoms block 0 10 0 10 0.0 ${zrep} units lattice
region          atoms block 0 10 0 10 0.0 10 units lattice
create_atoms    1 region atoms
Created 4000 atoms
  Time spent = 0.00126769 secs
variable        newx equal xhi*0.99998623082367843
variable        newy equal yhi*0.96972098958539854
change_box      all x final 0.0 ${newx} y final 0.0 ${newy} remap units box
change_box      all x final 0.0 115.21598865 y final 0.0 ${newy} remap units box
change_box      all x final 0.0 115.21598865 y final 0.0 105.339018016667 remap units box
  orthogonal box = (0 0 0) to (115.216 108.628 66.5209)
  orthogonal box = (0 0 0) to (115.216 105.339 66.5209)

comm_modify     vel yes
mass            * 222.12

timestep        0.01

pair_style      multi/lucy linear 74923
pair_coeff      * * table.multibody KEYWORD 16.00

fix		2 all nve

neighbor        0.0 bin
neigh_modify    every 1 delay 0 check no once no

variable        totEnergy equal pe+ke

thermo          1
thermo_style    custom step temp press vol pe ke v_totEnergy pxx pyy pzz lx ly lz
thermo_modify   format float %15.8f flush yes

velocity        all create 300.00 9198783 mom yes rot yes dist gaussian

run             100
Neighbor list info ...
  update every 1 steps, delay 0 steps, check no
  max neighbors/atom: 2000, page size: 100000
  master list distance cutoff = 16
  ghost atom cutoff = 16
  binsize = 8, bins = 15 14 9
  1 neighbor lists, perpetual/occasional/extra = 1 0 0
  (1) pair multi/lucy, perpetual
      attributes: half, newton on
      pair build: half/bin/atomonly/newton
      stencil: half/bin/3d/newton
      bin: standard
Per MPI rank memory allocation (min/avg/max) = 3.799 | 3.799 | 3.799 Mbytes
Step Temp Press Volume PotEng KinEng v_totEnergy Pxx Pyy Pzz Lx Ly Lz 
       0    300.00000000   1214.85216295 807346.78400379    -22.12267153    155.07339596    132.95072442   1220.16798060   1217.07567928   1207.31282897    115.21598865    105.33901802     66.52089800 
       1    299.98114753   1215.02410443 807346.78400379    -22.11292664    155.06365090    132.95072426   1220.34152877   1217.24682853   1207.48395600    115.21598865    105.33901802     66.52089800 
       2    299.92461451   1215.54000706 807346.78400379    -22.08370209    155.03442834    132.95072625   1220.85793037   1217.76032699   1208.00176383    115.21598865    105.33901802     66.52089800 
       3    299.83047573   1216.40013076 807346.78400379    -22.03503675    154.98576694    132.95073019   1221.71747879   1218.61639165   1208.86652184    115.21598865    105.33901802     66.52089800 
       4    299.69885819   1217.60487943 807346.78400379    -21.96699659    154.91773235    132.95073575   1222.92061082   1219.81538381   1210.07864366    115.21598865    105.33901802     66.52089800 
       5    299.52994089   1219.15479317 807346.78400379    -21.87967465    154.83041708    132.95074243   1224.46789855   1221.35780131   1211.63867965    115.21598865    105.33901802     66.52089800 
       6    299.32395464   1221.05052396 807346.78400379    -21.77318927    154.72394046    132.95075119   1226.36002474   1223.24425440   1213.54729275    115.21598865    105.33901802     66.52089800 
       7    299.08118176   1223.29284534 807346.78400379    -21.64768677    154.59844841    132.95076164   1228.59779249   1225.47547604   1215.80526750    115.21598865    105.33901802     66.52089800 
       8    298.80195566   1225.88262663 807346.78400379    -21.50333990    154.45411327    132.95077337   1231.18209913   1228.05229700   1218.41348377    115.21598865    105.33901802     66.52089800 
       9    298.48666041   1228.82080729 807346.78400379    -21.34034683    154.29113359    132.95078676   1234.11390922   1230.97562094   1221.37289170    115.21598865    105.33901802     66.52089800 
      10    298.13573020   1232.10838667 807346.78400379    -21.15893230    154.10973380    132.95080150   1237.39424378   1234.24641543   1224.68450080    115.21598865    105.33901802     66.52089800 
      11    297.74964874   1235.74638673 807346.78400379    -20.95934602    153.91016392    132.95081789   1241.02414252   1237.86567547   1228.34934218    115.21598865    105.33901802     66.52089800 
      12    297.32894861   1239.73583018 807346.78400379    -20.74186375    153.69269926    132.95083551   1245.00464223   1241.83440127   1232.36844704    115.21598865    105.33901802     66.52089800 
      13    296.87421056   1244.07769352 807346.78400379    -20.50678500    153.45764001    132.95085501   1249.33672970   1246.15355050   1236.74280036    115.21598865    105.33901802     66.52089800 
      14    296.38606269   1248.77289380 807346.78400379    -20.25443574    153.20531085    132.95087511   1254.02132883   1250.82402529   1241.47332729    115.21598865    105.33901802     66.52089800 
      15    295.86517960   1253.82221264 807346.78400379    -19.98516253    152.93606049    132.95089795   1259.05922478   1255.84659574   1246.56081741    115.21598865    105.33901802     66.52089800 
      16    295.31228145   1259.22630552 807346.78400379    -19.69933964    152.65026117    132.95092153   1264.45107300   1261.22190935   1252.00593422    115.21598865    105.33901802     66.52089800 
      17    294.72813290   1264.98562568 807346.78400379    -19.39736227    152.34830817    132.95094590   1270.19732361   1266.95041430   1257.80913914    115.21598865    105.33901802     66.52089800 
      18    294.11354202   1271.10038240 807346.78400379    -19.07964719    152.03061919    132.95097200   1276.29817976   1273.03231803   1263.97064942    115.21598865    105.33901802     66.52089800 
      19    293.46935910   1277.57052388 807346.78400379    -18.74663411    151.69763375    132.95099964   1282.75358088   1279.46756946   1270.49042129    115.21598865    105.33901802     66.52089800 
      20    292.79647539   1284.39567645 807346.78400379    -18.39878381    151.34981254    132.95102874   1289.56314177   1286.25579864   1277.36808894    115.21598865    105.33901802     66.52089800 
      21    292.09582172   1291.57512155 807346.78400379    -18.03657830    150.98763673    132.95105843   1296.72612994   1293.39629334   1284.60294138    115.21598865    105.33901802     66.52089800 
      22    291.36836706   1299.10773765 807346.78400379    -17.66051751    150.61160718    132.95108967   1304.24140732   1300.88794134   1292.19386429    115.21598865    105.33901802     66.52089800 
      23    290.61511707   1306.99197385 807346.78400379    -17.27112173    150.22224373    132.95112201   1312.10740425   1308.72920386   1300.13931345    115.21598865    105.33901802     66.52089800 
      24    289.83711241   1315.22582628 807346.78400379    -16.86892918    149.82008432    132.95115514   1320.32209594   1316.91809163   1308.43729127    115.21598865    105.33901802     66.52089800 
      25    289.03542715   1323.80677773 807346.78400379    -16.45449501    149.40568413    132.95118913   1328.88294247   1325.45210503   1317.08528570    115.21598865    105.33901802     66.52089800 
      26    288.21116698   1332.73178803 807346.78400379    -16.02839085    148.97961472    132.95122387   1337.78687930   1334.32822410   1326.08026069    115.21598865    105.33901802     66.52089800 
      27    287.36546742   1341.99726607 807346.78400379    -15.59120307    148.54246304    132.95125997   1347.03028945   1343.54288081   1335.41862794    115.21598865    105.33901802     66.52089800 
      28    286.49949187   1351.59896801 807346.78400379    -15.14353350    148.09483048    132.95129698   1356.60890192   1353.09185864   1345.09614348    115.21598865    105.33901802     66.52089800 
      29    285.61442707   1361.52922495 807346.78400379    -14.68599622    147.63733046    132.95133424   1366.51503555   1362.96757275   1355.10506656    115.21598865    105.33901802     66.52089800 
      30    284.71147773   1371.77855170 807346.78400379    -14.21921386    147.17058573    132.95137187   1376.73918640   1373.16059218   1365.43587653    115.21598865    105.33901802     66.52089800 
      31    283.79186581   1382.33897607 807346.78400379    -13.74381868    146.69522792    132.95140924   1387.27336816   1383.66296406   1376.08059600    115.21598865    105.33901802     66.52089800 
      32    282.85682945   1393.20028047 807346.78400379    -13.26044889    146.21189704    132.95144815   1398.10737454   1394.46448800   1387.02897886    115.21598865    105.33901802     66.52089800 
      33    281.90762030   1404.35197226 807346.78400379    -12.76975285    145.72124009    132.95148724   1409.23066636   1405.55475294   1398.27049746    115.21598865    105.33901802     66.52089800 
      34    280.94550418   1415.78549576 807346.78400379    -12.27238473    145.22391137    132.95152665   1420.63465427   1416.92525485   1409.79657817    115.21598865    105.33901802     66.52089800 
      35    279.97176100   1427.49146562 807346.78400379    -11.76900617    144.72057250    132.95156633   1432.30992212   1428.56664887   1421.59782588    115.21598865    105.33901802     66.52089800 
      36    278.98768177   1439.45870696 807346.78400379    -11.26028514    144.21189081    132.95160567   1444.24528507   1440.46777979   1433.66305603    115.21598865    105.33901802     66.52089800 
      37    277.99456581   1451.67535718 807346.78400379    -10.74689185    143.69853792    132.95164608   1456.42885535   1452.61682464   1445.98039154    115.21598865    105.33901802     66.52089800 
      38    276.99371944   1464.13036020 807346.78400379    -10.22950270    143.18118911    132.95168641   1468.84954666   1465.00277447   1458.53875949    115.21598865    105.33901802     66.52089800 
      39    275.98645421   1476.81145900 807346.78400379     -9.70879524    142.66052231    132.95172707   1481.49508940   1477.61340268   1471.32588491    115.21598865    105.33901802     66.52089800 
      40    274.97408312   1489.70403814 807346.78400379     -9.18544918    142.13721623    132.95176705   1494.35086122   1490.43411607   1484.32713713    115.21598865    105.33901802     66.52089800 
      41    273.95791821   1502.79435310 807346.78400379     -8.66014184    141.61194909    132.95180725   1507.40310894   1503.45119064   1497.52875970    115.21598865    105.33901802     66.52089800 
      42    272.93926989   1516.06942250 807346.78400379     -8.13355054    141.08539824    132.95184770   1520.63884731   1516.65166109   1510.91775909    115.21598865    105.33901802     66.52089800 
      43    271.91944557   1529.51680844 807346.78400379     -7.60635177    140.55823950    132.95188774   1534.04562979   1530.02312381   1524.48167173    115.21598865    105.33901802     66.52089800 
      44    270.89974731   1543.12335818 807346.78400379     -7.07921784    140.03114593    132.95192809   1547.61031641   1543.55244104   1538.20731708    115.21598865    105.33901802     66.52089800 
      45    269.88146903   1556.87593352 807346.78400379     -6.55281938    139.50478636    132.95196698   1561.31976574   1557.22650743   1552.08152740    115.21598865    105.33901802     66.52089800 
      46    268.86589398   1570.76106334 807346.78400379     -6.02781751    138.97982412    132.95200661   1575.16048034   1571.03190313   1566.09080655    115.21598865    105.33901802     66.52089800 
      47    267.85429195   1584.76499166 807346.78400379     -5.50487023    138.45691558    132.95204535   1589.11868650   1584.95491319   1580.22137530    115.21598865    105.33901802     66.52089800 
      48    266.84791630   1598.87364420 807346.78400379     -4.98462616    137.93670861    132.95208246   1603.18032595   1598.98147581   1594.45913084    115.21598865    105.33901802     66.52089800 
      49    265.84800133   1613.07344377 807346.78400379     -4.46772176    137.41984125    132.95211949   1617.33182704   1613.09804091   1608.79046335    115.21598865    105.33901802     66.52089800 
      50    264.85575974   1627.35083244 807346.78400379     -3.95478339    136.90694034    132.95215694   1631.55963119   1627.29109567   1623.20177046    115.21598865    105.33901802     66.52089800 
      51    263.87237963   1641.69193948 807346.78400379     -3.44642756    136.39862003    132.95219247   1645.84985626   1641.54683072   1637.67913144    115.21598865    105.33901802     66.52089800 
      52    262.89902174   1656.08359048 807346.78400379     -2.94325329    135.89548032    132.95222702   1660.18931827   1655.85211428   1652.20933888    115.21598865    105.33901802     66.52089800 
      53    261.93681686   1670.51298941 807346.78400379     -2.44584441    135.39810572    132.95226132   1674.56522306   1670.19418339   1666.77956179    115.21598865    105.33901802     66.52089800 
      54    260.98686301   1684.96733038 807346.78400379     -1.95476987    134.90706383    132.95229396   1688.96479769   1684.56026311   1681.37693034    115.21598865    105.33901802     66.52089800 
      55    260.05022269   1699.43459978 807346.78400379     -1.47057887    134.42290384    132.95232497   1703.37605189   1698.93837647   1695.98937097    115.21598865    105.33901802     66.52089800 
      56    259.12792025   1713.90324064 807346.78400379     -0.99379963    133.94615527    132.95235564   1717.78744871   1713.31700606   1710.60526716    115.21598865    105.33901802     66.52089800 
      57    258.22093903   1728.36176703 807346.78400379     -0.52494210    133.47732641    132.95238431   1732.18752531   1727.68470706   1725.21306871    115.21598865    105.33901802     66.52089800 
      58    257.33021862   1742.79915162 807346.78400379     -0.06449097    133.01690295    132.95241198   1746.56528227   1742.03049475   1739.80167783    115.21598865    105.33901802     66.52089800 
      59    256.45665215   1757.20466228 807346.78400379      0.38709141    132.56534655    132.95243795   1760.91001857   1756.34367418   1754.36029409    115.21598865    105.33901802     66.52089800 
      60    255.60108368   1771.56781884 807346.78400379      0.82936854    132.12309352    132.95246206   1775.21128669   1770.61379935   1768.87837047    115.21598865    105.33901802     66.52089800 
      61    254.76430577   1785.87863666 807346.78400379      1.26193102    131.69055355    132.95248456   1789.45913948   1784.83092692   1783.34584357    115.21598865    105.33901802     66.52089800 
      62    253.94705707   1800.12719757 807346.78400379      1.68439676    131.26810845    132.95250520   1803.64371565   1798.98517753   1797.75269953    115.21598865    105.33901802     66.52089800 
      63    253.15002014   1814.30425269 807346.78400379      2.09641323    130.85611103    132.95252426   1817.75581237   1813.06734315   1812.08960254    115.21598865    105.33901802     66.52089800 
      64    252.37381949   1828.40106540 807346.78400379      2.49765700    130.45488413    132.95254113   1831.78673389   1827.06873022   1826.34773208    115.21598865    105.33901802     66.52089800 
      65    251.61901985   1842.40930269 807346.78400379      2.88783652    130.06471965    132.95255617   1845.72818429   1840.98105032   1840.51867346    115.21598865    105.33901802     66.52089800 
      66    250.88612447   1856.32127361 807346.78400379      3.26669133    129.68587773    132.95256906   1859.57251002   1854.79666186   1854.59464896    115.21598865    105.33901802     66.52089800 
      67    250.17557382   1870.12987320 807346.78400379      3.63399391    129.31858606    132.95257997   1873.31264445   1868.50851144   1868.56846371    115.21598865    105.33901802     66.52089800 
      68    249.48774444   1883.82841505 807346.78400379      3.98954957    128.96303926    132.95258883   1886.94194239   1882.10996601   1882.43333675    115.21598865    105.33901802     66.52089800 
      69    248.82294790   1897.41072541 807346.78400379      4.33319734    128.61939841    132.95259575   1900.45427392   1895.59490593   1896.18299639    115.21598865    105.33901802     66.52089800 
      70    248.18143010   1910.87110200 807346.78400379      4.66480971    128.28779060    132.95260031   1913.84398279   1908.95768359   1909.81163962    115.21598865    105.33901802     66.52089800 
      71    247.56337080   1924.20433092 807346.78400379      4.98429442    127.96830875    132.95260317   1927.10590073   1922.19314169   1923.31395034    115.21598865    105.33901802     66.52089800 
      72    246.96888332   1937.40561172 807346.78400379      5.29159192    127.66101144    132.95260336   1940.23527480   1935.29653349   1936.68502689    115.21598865    105.33901802     66.52089800 
      73    246.39801457   1950.47054781 807346.78400379      5.58667848    127.36592292    132.95260140   1953.22775614   1948.26351702   1949.92037028    115.21598865    105.33901802     66.52089800 
      74    245.85074536   1963.39537068 807346.78400379      5.86956414    127.08303327    132.95259741   1966.07962546   1961.09038285   1963.01610373    115.21598865    105.33901802     66.52089800 
      75    245.32699094   1976.17676103 807346.78400379      6.14029188    126.81229868    132.95259056   1978.78761797   1973.77386794   1975.96879718    115.21598865    105.33901802     66.52089800 
      76    244.82660180   1988.81195035 807346.78400379      6.39894115    126.55364187    132.95258302   1991.34902712   1986.31126236   1988.77556158    115.21598865    105.33901802     66.52089800 
      77    244.34936460   2001.29860744 807346.78400379      6.64562028    126.30695256    132.95257284   2003.76158618   1998.70029642   2001.43393973    115.21598865    105.33901802     66.52089800 
      78    243.89500354   2013.63472091 807346.78400379      6.88047266    126.07208818    132.95256084   2016.02334795   2010.93901553   2013.94179925    115.21598865    105.33901802     66.52089800 
      79    243.46318183   2025.81882222 807346.78400379      7.10367211    125.84887466    132.95254676   2028.13292203   2023.02600213   2026.29754250    115.21598865    105.33901802     66.52089800 
      80    243.05350350   2037.84972632 807346.78400379      7.31542356    125.63710729    132.95253085   2040.08919651   2034.96012521   2038.49985723    115.21598865    105.33901802     66.52089800 
      81    242.66551535   2049.72672125 807346.78400379      7.51596120    125.43655182    132.95251303   2051.89153575   2046.74072332   2050.54790468    115.21598865    105.33901802     66.52089800 
      82    242.29870918   2061.44938322 807346.78400379      7.70554788    125.24694556    132.95249344   2063.53959119   2058.36742406   2062.44113442    115.21598865    105.33901802     66.52089800 
      83    241.95252419   2073.01758995 807346.78400379      7.88447379    125.06799862    132.95247241   2075.03331953   2069.84015459   2074.17929572    115.21598865    105.33901802     66.52089800 
      84    241.62634958   2084.43164456 807346.78400379      8.05305444    124.89939527    132.95244971   2086.37310352   2081.15926797   2085.76256220    115.21598865    105.33901802     66.52089800 
      85    241.31952730   2095.69216164 807346.78400379      8.21163054    124.74079536    132.95242590   2097.55964142   2092.32542401   2097.19141949    115.21598865    105.33901802     66.52089800 
      86    241.03135497   2106.79989279 807346.78400379      8.36056430    124.59183583    132.95240012   2108.59377304   2103.33941747   2108.46648785    115.21598865    105.33901802     66.52089800 
      87    240.76108837   2117.75689019 807346.78400379      8.50024134    124.45213196    132.95237330   2119.47764958   2114.20335701   2119.58966400    115.21598865    105.33901802     66.52089800 
      88    240.50794396   2128.56528622 807346.78400379      8.63106702    124.32127875    132.95234577   2130.21350498   2124.91941290   2130.56294079    115.21598865    105.33901802     66.52089800 
      89    240.27110246   2139.22726373 807346.78400379      8.75346347    124.19885270    132.95231616   2140.80363004   2135.48979433   2141.38836684    115.21598865    105.33901802     66.52089800 
      90    240.04971236   2149.74502390 807346.78400379      8.86787318    124.08441365    132.95228682   2151.25030558   2145.91673295   2152.06803318    115.21598865    105.33901802     66.52089800 
      91    239.84289318   2160.12122508 807346.78400379      8.97474952    123.97750647    132.95225599   2161.55623883   2156.20292965   2162.60450676    115.21598865    105.33901802     66.52089800 
      92    239.64973914   2170.35800664 807346.78400379      9.07456146    123.87766296    132.95222442   2171.72366239   2166.35054438   2172.99981315    115.21598865    105.33901802     66.52089800 
      93    239.46932300   2180.45788490 807346.78400379      9.16778906    123.78440382    132.95219287   2181.75519168   2176.36211645   2183.25634657    115.21598865    105.33901802     66.52089800 
      94    239.30069940   2190.42375916 807346.78400379      9.25491933    123.69724037    132.95215970   2191.65385704   2186.24056273   2193.37685771    115.21598865    105.33901802     66.52089800 
      95    239.14290852   2200.25799773 807346.78400379      9.33645057    123.61567648    132.95212704   2201.42212805   2195.98826223   2203.36360292    115.21598865    105.33901802     66.52089800 
      96    238.99498003   2209.96309374 807346.78400379      9.41288338    123.53921057    132.95209395   2211.06259311   2205.60771811   2213.21896999    115.21598865    105.33901802     66.52089800 
      97    238.85593672   2219.54191103 807346.78400379      9.48472361    123.46733750    132.95206111   2220.57820213   2215.10180866   2222.94572230    115.21598865    105.33901802     66.52089800 
      98    238.72479794   2228.99720049 807346.78400379      9.55247722    123.39955039    132.95202761   2229.97181203   2224.47329283   2232.54649662    115.21598865    105.33901802     66.52089800 
      99    238.60058325   2238.33171813 807346.78400379      9.61665298    123.33534241    132.95199538   2239.24626267   2233.72494589   2242.02394583    115.21598865    105.33901802     66.52089800 
     100    238.48231547   2247.54876966 807346.78400379      9.67775433    123.27420845    132.95196278   2248.40498445   2242.86004400   2251.38128053    115.21598865    105.33901802     66.52089800 
Loop time of 0.277123 on 8 procs for 100 steps with 4000 atoms

Performance: 311.775 ns/day, 0.077 hours/ns, 360.851 timesteps/s
98.9% CPU use with 8 MPI tasks x no OpenMP threads

MPI task timing breakdown:
Section |  min time  |  avg time  |  max time  |%varavg| %total
---------------------------------------------------------------
Pair    | 0.13755    | 0.13839    | 0.13926    |   0.2 | 49.94
Neigh   | 0.096057   | 0.096787   | 0.097262   |   0.1 | 34.93
Comm    | 0.034666   | 0.035848   | 0.036494   |   0.3 | 12.94
Output  | 0.0046718  | 0.0048196  | 0.0056694  |   0.5 |  1.74
Modify  | 0.00070633 | 0.00071417 | 0.00072904 |   0.0 |  0.26
Other   |            | 0.0005681  |            |       |  0.20

Nlocal:    500 ave 505 max 494 min
Histogram: 1 1 0 0 1 1 2 0 0 2
Nghost:    1931.12 ave 1947 max 1923 min
Histogram: 1 1 3 1 1 0 0 0 0 1
Neighs:    20730.6 ave 21047 max 20477 min
Histogram: 1 1 2 0 1 0 0 2 0 1

Total # of neighbors = 165845
Ave neighs/atom = 41.4612
Neighbor list builds = 100
Dangerous builds not checked

Please see the log.cite file for references relevant to this simulation

Total wall time: 0:00:00
