LAMMPS (24 Aug 2020)
units real
boundary p p p

atom_style full
bond_style harmonic
angle_style harmonic
special_bonds lj/coul 0.0 0.0 0.5

pair_style lj/cut/coul/long 12.0 12.0
kspace_style pppm 1.0e-3

comm_modify vel yes
read_data data.swm4-ndp
Reading data file ...
  orthogonal box = (-12.000000 -12.000000 -12.000000) to (12.000000 12.000000 12.000000)
  2 by 2 by 2 MPI processor grid
  reading atoms ...
  2500 atoms
  scanning bonds ...
  1 = max bonds/atom
  scanning angles ...
  1 = max angles/atom
  reading bonds ...
  2000 bonds
  reading angles ...
  500 angles
Finding 1-2 1-3 1-4 neighbors ...
  special bond factors lj:    0.0      0.0      0.5     
  special bond factors coul:  0.0      0.0      0.5     
     4 = max # of 1-2 neighbors
     3 = max # of 1-3 neighbors
     3 = max # of 1-4 neighbors
     4 = max # of special neighbors
  special bonds CPU = 0.001 seconds
  read_data CPU = 0.019 seconds

pair_coeff    1    1      0.210939     3.183950  # ODw ODw
pair_coeff    *   2*      0.000000     0.0

group ATOMS type 1:3
2000 atoms in group ATOMS
group CORES type 1
500 atoms in group CORES
group DRUDES type 4
500 atoms in group DRUDES

variable TK equal 300.0
variable TDK equal 1.0
variable PBAR equal 1.0

neighbor 2.0 bin

timestep 1.0

fix DRUDE all drude C N N D

velocity ATOMS create ${TK} 12345
velocity ATOMS create 300 12345
velocity DRUDES create ${TDK} 12345
velocity DRUDES create 1 12345

delete_bonds ATOMS multi
System init for delete_bonds ...
PPPM initialization ...
  using 12-bit tables for long-range coulomb (src/kspace.cpp:328)
  G vector (1/distance) = 0.21745695
  grid = 10 10 10
  stencil order = 5
  estimated absolute RMS force accuracy = 0.19728846
  estimated relative force accuracy = 0.00059412835
  using double precision FFTW3
  3d grid and FFT values/proc = 1000 200
Rebuild special list taking Drude particles into account
Old max number of 1-2 to 1-4 neighbors: 4
New max number of 1-2 to 1-4 neighbors: 4 (+0)
Neighbor list info ...
  update every 1 steps, delay 10 steps, check yes
  max neighbors/atom: 2000, page size: 100000
  master list distance cutoff = 14
  ghost atom cutoff = 14
  binsize = 7, bins = 4 4 4
  1 neighbor lists, perpetual/occasional/extra = 1 0 0
  (1) pair lj/cut/coul/long, perpetual
      attributes: half, newton on
      pair build: half/bin/newton
      stencil: half/bin/3d/newton
      bin: standard
Deleting bonds ...
  2000 total bonds, 500 turned on, 1500 turned off
  500 total angles, 0 turned on, 500 turned off
  0 total dihedrals, 0 turned on, 0 turned off
  0 total impropers, 0 turned on, 0 turned off

fix TEMP all langevin/drude ${TK} 100. 1256 ${TDK} 20. 13977 zero yes
fix TEMP all langevin/drude 300 100. 1256 ${TDK} 20. 13977 zero yes
fix TEMP all langevin/drude 300 100. 1256 1 20. 13977 zero yes
fix NPH ATOMS rigid/nph/small molecule iso ${PBAR} ${PBAR} 500.
fix NPH ATOMS rigid/nph/small molecule iso 1 ${PBAR} 500.
fix NPH ATOMS rigid/nph/small molecule iso 1 1 500.
  create bodies CPU = 0.000 seconds
  500 rigid bodies with 2000 atoms
  0.83209864 = max distance from body owner to body atom
fix NVE DRUDES nve

compute TEMP all temp/drude

thermo_style custom step cpu etotal ke pe ebond eangle evdwl ecoul elong press vol temp c_TEMP[1] c_TEMP[2]
thermo 20

run 20
PPPM initialization ...
  using 12-bit tables for long-range coulomb (src/kspace.cpp:328)
  G vector (1/distance) = 0.21745695
  grid = 10 10 10
  stencil order = 5
  estimated absolute RMS force accuracy = 0.19728846
  estimated relative force accuracy = 0.00059412835
  using double precision FFTW3
  3d grid and FFT values/proc = 1000 200
Per MPI rank memory allocation (min/avg/max) = 15.82 | 16.13 | 16.21 Mbytes
Step CPU TotEng KinEng PotEng E_bond E_angle E_vdwl E_coul E_long Press Volume Temp c_TEMP[1] c_TEMP[2] 
       0            0    4568.0415    903.41148      3664.63    623.46454            0    2890.2449    157955.66   -157804.74    244591.08        13824    202.18534    295.64644    14.858785 
      20   0.26435679     2935.023    4591.6891   -1656.6661    566.95551            0    600.60316    155098.49   -157922.71    27116.247     14058.84    1027.6294    1460.0168    160.99145 
Loop time of 0.26448 on 8 procs for 20 steps with 2500 atoms

Performance: 6.534 ns/day, 3.673 hours/ns, 75.620 timesteps/s
95.6% CPU use with 8 MPI tasks x no OpenMP threads

MPI task timing breakdown:
Section |  min time  |  avg time  |  max time  |%varavg| %total
---------------------------------------------------------------
Pair    | 0.12345    | 0.15325    | 0.17445    |   4.3 | 57.95
Bond    | 6.8771e-05 | 8.1467e-05 | 9.6492e-05 |   0.0 |  0.03
Kspace  | 0.030333   | 0.051559   | 0.080975   |   7.4 | 19.49
Neigh   | 0.010021   | 0.010029   | 0.010038   |   0.0 |  3.79
Comm    | 0.017455   | 0.018432   | 0.01908    |   0.4 |  6.97
Output  | 0.00012811 | 0.00013672 | 0.00017611 |   0.0 |  0.05
Modify  | 0.029661   | 0.029919   | 0.030354   |   0.2 | 11.31
Other   |            | 0.001067   |            |       |  0.40

Nlocal:        312.500 ave         326 max         289 min
Histogram: 1 0 1 0 0 1 0 2 1 2
Nghost:        11329.8 ave       11442 max       11184 min
Histogram: 1 0 1 1 0 1 0 1 2 1
Neighs:       321203.0 ave      343439 max      283646 min
Histogram: 1 0 0 0 1 2 0 2 0 2

Total # of neighbors = 2569622
Ave neighs/atom = 1027.8488
Ave special neighs/atom = 4.0000000
Neighbor list builds = 1
Dangerous builds = 0

Total wall time: 0:00:00
