LAMMPS (4 Jan 2019)
units real
boundary p p p

atom_style full
bond_style harmonic
angle_style harmonic
special_bonds lj/coul 0.0 0.0 0.5

pair_style lj/cut/coul/long 12.0 12.0
kspace_style pppm 1.0e-3

read_data data.swm4-ndp
  orthogonal box = (-12 -12 -12) to (12 12 12)
  2 by 2 by 2 MPI processor grid
  reading atoms ...
  2500 atoms
  scanning bonds ...
  1 = max bonds/atom
  scanning angles ...
  1 = max angles/atom
  reading bonds ...
  2000 bonds
  reading angles ...
  500 angles
  4 = max # of 1-2 neighbors
  3 = max # of 1-3 neighbors
  3 = max # of 1-4 neighbors
  4 = max # of special neighbors

pair_coeff    1    1      0.210939     3.183950  # ODw ODw
pair_coeff    *   2*      0.000000     0.0

group ATOMS type 1:3
2000 atoms in group ATOMS
group CORES type 1
500 atoms in group CORES
group DRUDES type 4
500 atoms in group DRUDES

variable TK equal 300.0
variable TDK equal 1.0
variable PBAR equal 1.0

neighbor 2.0 bin

timestep 1.0

fix DRUDE all drude C N N D

velocity ATOMS create ${TK} 12345
velocity ATOMS create 300 12345
velocity DRUDES create ${TDK} 12345
velocity DRUDES create 1 12345

delete_bonds ATOMS multi
PPPM initialization ...
  using 12-bit tables for long-range coulomb (../kspace.cpp:321)
  G vector (1/distance) = 0.217457
  grid = 10 10 10
  stencil order = 5
  estimated absolute RMS force accuracy = 0.197288
  estimated relative force accuracy = 0.000594128
  using double precision FFTs
  3d grid and FFT values/proc = 1000 200
Rebuild special list taking Drude particles into account
Old max number of 1-2 to 1-4 neighbors: 4
New max number of 1-2 to 1-4 neighbors: 4 (+0)
Neighbor list info ...
  update every 1 steps, delay 10 steps, check yes
  max neighbors/atom: 2000, page size: 100000
  master list distance cutoff = 14
  ghost atom cutoff = 14
  binsize = 7, bins = 4 4 4
  1 neighbor lists, perpetual/occasional/extra = 1 0 0
  (1) pair lj/cut/coul/long, perpetual
      attributes: half, newton on
      pair build: half/bin/newton
      stencil: half/bin/3d/newton
      bin: standard
  2000 total bonds, 500 turned on, 1500 turned off
  500 total angles, 0 turned on, 500 turned off
  0 total dihedrals, 0 turned on, 0 turned off
  0 total impropers, 0 turned on, 0 turned off

comm_modify vel yes
compute TATOM ATOMS temp/com
compute TEMP all temp/drude

fix DTDIR all drude/transform/direct
fix RIGID ATOMS rigid/npt/small molecule temp ${TK} ${TK} 100 iso ${PBAR} ${PBAR} 500
fix RIGID ATOMS rigid/npt/small molecule temp 300 ${TK} 100 iso ${PBAR} ${PBAR} 500
fix RIGID ATOMS rigid/npt/small molecule temp 300 300 100 iso ${PBAR} ${PBAR} 500
fix RIGID ATOMS rigid/npt/small molecule temp 300 300 100 iso 1 ${PBAR} 500
fix RIGID ATOMS rigid/npt/small molecule temp 300 300 100 iso 1 1 500
500 rigid bodies with 2000 atoms
  0.832099 = max distance from body owner to body atom
fix_modify RIGID temp TATOM press thermo_press
WARNING: Temperature for fix modify is not for group all (../fix_rigid_nh_small.cpp:1338)
fix NVT DRUDES nvt temp ${TDK} ${TDK} 100.0
fix NVT DRUDES nvt temp 1 ${TDK} 100.0
fix NVT DRUDES nvt temp 1 1 100.0
fix DTINV all drude/transform/inverse

thermo_style custom step cpu etotal ke pe ebond eangle evdwl ecoul elong press vol temp c_TEMP[1] c_TEMP[2]
thermo 20

run 20
PPPM initialization ...
  using 12-bit tables for long-range coulomb (../kspace.cpp:321)
  G vector (1/distance) = 0.217457
  grid = 10 10 10
  stencil order = 5
  estimated absolute RMS force accuracy = 0.197288
  estimated relative force accuracy = 0.000594128
  using double precision FFTs
  3d grid and FFT values/proc = 1000 200
Per MPI rank memory allocation (min/avg/max) = 15.58 | 15.89 | 15.96 Mbytes
Step CPU TotEng KinEng PotEng E_bond E_angle E_vdwl E_coul E_long Press Volume Temp c_TEMP[1] c_TEMP[2] 
       0            0    4568.0415    903.41148      3664.63    623.46454            0    2890.2449    157955.66   -157804.74    244591.08        13824    202.18534    295.64644    14.858785 
      20   0.25570471    3742.8202     5338.828   -1596.0078    567.26788            0    662.20797    155098.52      -157924    31680.274    13979.575    1194.8407    1690.2355     201.6614 
Loop time of 0.255785 on 8 procs for 20 steps with 2500 atoms

Performance: 6.756 ns/day, 3.553 hours/ns, 78.191 timesteps/s
98.3% CPU use with 8 MPI tasks x no OpenMP threads

MPI task timing breakdown:
Section |  min time  |  avg time  |  max time  |%varavg| %total
---------------------------------------------------------------
Pair    | 0.12109    | 0.13272    | 0.13908    |   1.8 | 51.89
Bond    | 5.4672e-05 | 5.9783e-05 | 6.5615e-05 |   0.0 |  0.02
Kspace  | 0.01205    | 0.018419   | 0.030091   |   4.8 |  7.20
Neigh   | 0.0098117  | 0.009816   | 0.0098189  |   0.0 |  3.84
Comm    | 0.013448   | 0.013578   | 0.013707   |   0.1 |  5.31
Output  | 5.9536e-05 | 6.7641e-05 | 0.00010464 |   0.0 |  0.03
Modify  | 0.080548   | 0.080682   | 0.080814   |   0.0 | 31.54
Other   |            | 0.0004443  |            |       |  0.17

Nlocal:    312.5 ave 326 max 292 min
Histogram: 1 0 1 0 1 0 1 1 1 2
Nghost:    11354.5 ave 11462 max 11209 min
Histogram: 1 0 0 2 1 0 0 1 1 2
Neighs:    322375 ave 344480 max 285556 min
Histogram: 1 0 0 0 0 2 1 2 0 2

Total # of neighbors = 2579001
Ave neighs/atom = 1031.6
Ave special neighs/atom = 4
Neighbor list builds = 1
Dangerous builds = 0

Total wall time: 0:00:00
