LAMMPS (18 Jun 2019)
  using 1 OpenMP thread(s) per MPI task
units real
boundary p p p

atom_style full
bond_style harmonic
angle_style harmonic
special_bonds lj/coul 0.0 0.0 0.5

pair_style lj/cut/coul/long 12.0 12.0
kspace_style pppm 1.0e-3

comm_modify vel yes
read_data data.swm4-ndp
  orthogonal box = (-12 -12 -12) to (12 12 12)
  2 by 2 by 2 MPI processor grid
  reading atoms ...
  2500 atoms
  scanning bonds ...
  1 = max bonds/atom
  scanning angles ...
  1 = max angles/atom
  reading bonds ...
  2000 bonds
  reading angles ...
  500 angles
  4 = max # of 1-2 neighbors
  3 = max # of 1-3 neighbors
  3 = max # of 1-4 neighbors
  4 = max # of special neighbors
  special bonds CPU = 0.00150418 secs
  read_data CPU = 0.013037 secs

pair_coeff    1    1      0.210939     3.183950  # ODw ODw
pair_coeff    *   2*      0.000000     0.0

group ATOMS type 1:3
2000 atoms in group ATOMS
group CORES type 1
500 atoms in group CORES
group DRUDES type 4
500 atoms in group DRUDES

variable TK equal 300.0
variable TDK equal 1.0
variable PBAR equal 1.0

neighbor 2.0 bin

timestep 1.0

fix DRUDE all drude C N N D

velocity ATOMS create ${TK} 12345
velocity ATOMS create 300 12345
velocity DRUDES create ${TDK} 12345
velocity DRUDES create 1 12345

delete_bonds ATOMS multi
PPPM initialization ...
  using 12-bit tables for long-range coulomb (src/kspace.cpp:321)
  G vector (1/distance) = 0.217457
  grid = 10 10 10
  stencil order = 5
  estimated absolute RMS force accuracy = 0.197288
  estimated relative force accuracy = 0.000594128
  using double precision FFTs
  3d grid and FFT values/proc = 1000 200
Rebuild special list taking Drude particles into account
Old max number of 1-2 to 1-4 neighbors: 4
New max number of 1-2 to 1-4 neighbors: 4 (+0)
Neighbor list info ...
  update every 1 steps, delay 10 steps, check yes
  max neighbors/atom: 2000, page size: 100000
  master list distance cutoff = 14
  ghost atom cutoff = 14
  binsize = 7, bins = 4 4 4
  1 neighbor lists, perpetual/occasional/extra = 1 0 0
  (1) pair lj/cut/coul/long, perpetual
      attributes: half, newton on
      pair build: half/bin/newton
      stencil: half/bin/3d/newton
      bin: standard
  2000 total bonds, 500 turned on, 1500 turned off
  500 total angles, 0 turned on, 500 turned off
  0 total dihedrals, 0 turned on, 0 turned off
  0 total impropers, 0 turned on, 0 turned off

fix TEMP all langevin/drude ${TK} 100. 1256 ${TDK} 20. 13977 zero yes
fix TEMP all langevin/drude 300 100. 1256 ${TDK} 20. 13977 zero yes
fix TEMP all langevin/drude 300 100. 1256 1 20. 13977 zero yes
fix NPH ATOMS rigid/nph/small molecule iso ${PBAR} ${PBAR} 500.
fix NPH ATOMS rigid/nph/small molecule iso 1 ${PBAR} 500.
fix NPH ATOMS rigid/nph/small molecule iso 1 1 500.
  create bodies CPU = 0.000246048 secs
500 rigid bodies with 2000 atoms
  0.832099 = max distance from body owner to body atom
fix NVE DRUDES nve

compute TEMP all temp/drude

thermo_style custom step cpu etotal ke pe ebond eangle evdwl ecoul elong press vol temp c_TEMP[1] c_TEMP[2]
thermo 20

run 20
PPPM initialization ...
  using 12-bit tables for long-range coulomb (src/kspace.cpp:321)
  G vector (1/distance) = 0.217457
  grid = 10 10 10
  stencil order = 5
  estimated absolute RMS force accuracy = 0.197288
  estimated relative force accuracy = 0.000594128
  using double precision FFTs
  3d grid and FFT values/proc = 1000 200
Per MPI rank memory allocation (min/avg/max) = 15.58 | 15.89 | 15.96 Mbytes
Step CPU TotEng KinEng PotEng E_bond E_angle E_vdwl E_coul E_long Press Volume Temp c_TEMP[1] c_TEMP[2] 
       0            0    4568.0415    903.41148      3664.63    623.46454            0    2890.2449    157955.66   -157804.74    244591.08        13824    202.18534    295.64644    14.858785 
      20   0.34042192    2934.9985    4591.7288   -1656.7303    566.94864            0    600.60021    155098.44   -157922.72     27115.33    14058.841    1027.6383    1460.0288    160.99408 
Loop time of 0.340485 on 8 procs for 20 steps with 2500 atoms

Performance: 5.075 ns/day, 4.729 hours/ns, 58.740 timesteps/s
98.7% CPU use with 8 MPI tasks x 1 OpenMP threads

MPI task timing breakdown:
Section |  min time  |  avg time  |  max time  |%varavg| %total
---------------------------------------------------------------
Pair    | 0.15869    | 0.19084    | 0.23776    |   5.5 | 56.05
Bond    | 8.1778e-05 | 9.6262e-05 | 0.00010753 |   0.0 |  0.03
Kspace  | 0.0091827  | 0.05908    | 0.096515   |  11.3 | 17.35
Neigh   | 0.012218   | 0.012516   | 0.01298    |   0.2 |  3.68
Comm    | 0.0239     | 0.029377   | 0.033707   |   2.3 |  8.63
Output  | 7.4148e-05 | 7.7337e-05 | 9.4175e-05 |   0.0 |  0.02
Modify  | 0.045984   | 0.04639    | 0.047172   |   0.2 | 13.62
Other   |            | 0.002108   |            |       |  0.62

Nlocal:    312.5 ave 326 max 289 min
Histogram: 1 0 1 0 0 1 0 2 1 2
Nghost:    11329.8 ave 11442 max 11184 min
Histogram: 1 0 1 1 0 1 0 1 2 1
Neighs:    321203 ave 343438 max 283647 min
Histogram: 1 0 0 0 1 2 0 2 0 2

Total # of neighbors = 2569621
Ave neighs/atom = 1027.85
Ave special neighs/atom = 4
Neighbor list builds = 1
Dangerous builds = 0

Total wall time: 0:00:00
