LAMMPS (30 Jun 2020)
  using 1 OpenMP thread(s) per MPI task
variable number	equal 1
variable ofreq	equal 10000
variable efreq	equal 10000

variable ntype equal 8

variable T equal 0.1

units lj

dimension 3

newton on

boundary  p p p

atom_style hybrid bond ellipsoid
WARNING: Atom_style hybrid defines both pertype and peratom masses - both must be set, only peratom masses will be used (src/atom_vec_hybrid.cpp:156)
atom_modify sort 0 1.0

# Pair interactions require lists of neighbours to be calculated
neighbor 1.0 bin
neigh_modify every 10 delay 0 check yes
special_bonds lj 0 1 1 coul 1 1 1

read_data data.duplex4.8type
  orthogonal box = (-20 -20 -20) to (20 20 20)
  2 by 2 by 2 MPI processor grid
  reading atoms ...
  26 atoms
  reading velocities ...
  26 velocities
  26 ellipsoids
  scanning bonds ...
  1 = max bonds/atom
  reading bonds ...
  24 bonds
  2 = max # of 1-2 neighbors
  2 = max # of special neighbors
  special bonds CPU = 0.002 seconds
  read_data CPU = 0.126 seconds
mass * 3.1575

group all type 1 8
26 atoms in group all

# oxDNA bond interactions - FENE backbone
bond_style oxdna2/fene
bond_coeff * 2.0 0.25 0.7564

# oxDNA pair interactions
pair_style hybrid/overlay oxdna2/excv oxdna2/stk oxdna2/hbond oxdna2/xstk oxdna2/coaxstk oxdna2/dh
pair_coeff * * oxdna2/excv    2.0 0.7 0.675 2.0 0.515 0.5 2.0 0.33 0.32
pair_coeff * * oxdna2/stk     seqdep ${T} 1.3523 2.6717 6.0 0.4 0.9 0.32 0.75 1.3 0 0.8 0.9 0 0.95 0.9 0 0.95 2.0 0.65 2.0 0.65
pair_coeff * * oxdna2/stk     seqdep 0.1 1.3523 2.6717 6.0 0.4 0.9 0.32 0.75 1.3 0 0.8 0.9 0 0.95 0.9 0 0.95 2.0 0.65 2.0 0.65
pair_coeff * * oxdna2/hbond   seqdep 0.0 8.0 0.4 0.75 0.34 0.7 1.5 0 0.7 1.5 0 0.7 1.5 0 0.7 0.46 3.141592653589793 0.7 4.0 1.5707963267948966 0.45 4.0 1.5707963267948966 0.45

label loop
variable base loop ${ntype}
variable base loop 8
  variable basemod equal ${base}%4
  variable basemod equal 1%4
  if "${basemod} == 1" then     "variable comp equal ${base}+3"     "pair_coeff ${base} ${comp} oxdna2/hbond   seqdep 1.0678 8.0 0.4 0.75 0.34 0.7 1.5 0 0.7 1.5 0 0.7 1.5 0 0.7 0.46 3.141592653589793 0.7 4.0 1.5707963267948966 0.45 4.0 1.5707963267948966 0.45"
variable comp equal ${base}+3
variable comp equal 1+3
pair_coeff ${base} ${comp} oxdna2/hbond   seqdep 1.0678 8.0 0.4 0.75 0.34 0.7 1.5 0 0.7 1.5 0 0.7 1.5 0 0.7 0.46 3.141592653589793 0.7 4.0 1.5707963267948966 0.45 4.0 1.5707963267948966 0.45
pair_coeff 1 ${comp} oxdna2/hbond   seqdep 1.0678 8.0 0.4 0.75 0.34 0.7 1.5 0 0.7 1.5 0 0.7 1.5 0 0.7 0.46 3.141592653589793 0.7 4.0 1.5707963267948966 0.45 4.0 1.5707963267948966 0.45
pair_coeff 1 4 oxdna2/hbond   seqdep 1.0678 8.0 0.4 0.75 0.34 0.7 1.5 0 0.7 1.5 0 0.7 1.5 0 0.7 0.46 3.141592653589793 0.7 4.0 1.5707963267948966 0.45 4.0 1.5707963267948966 0.45
  if "${basemod} == 2" then     "variable comp equal ${base}+1"     "pair_coeff ${base} ${comp} oxdna2/hbond   seqdep 1.0678 8.0 0.4 0.75 0.34 0.7 1.5 0 0.7 1.5 0 0.7 1.5 0 0.7 0.46 3.141592653589793 0.7 4.0 1.5707963267948966 0.45 4.0 1.5707963267948966 0.45"
next base
jump in.duplex4.8type loop
variable base loop ${ntype}
variable base loop 8
  variable basemod equal ${base}%4
  variable basemod equal 2%4
  if "${basemod} == 1" then     "variable comp equal ${base}+3"     "pair_coeff ${base} ${comp} oxdna2/hbond   seqdep 1.0678 8.0 0.4 0.75 0.34 0.7 1.5 0 0.7 1.5 0 0.7 1.5 0 0.7 0.46 3.141592653589793 0.7 4.0 1.5707963267948966 0.45 4.0 1.5707963267948966 0.45"
  if "${basemod} == 2" then     "variable comp equal ${base}+1"     "pair_coeff ${base} ${comp} oxdna2/hbond   seqdep 1.0678 8.0 0.4 0.75 0.34 0.7 1.5 0 0.7 1.5 0 0.7 1.5 0 0.7 0.46 3.141592653589793 0.7 4.0 1.5707963267948966 0.45 4.0 1.5707963267948966 0.45"
variable comp equal ${base}+1
variable comp equal 2+1
pair_coeff ${base} ${comp} oxdna2/hbond   seqdep 1.0678 8.0 0.4 0.75 0.34 0.7 1.5 0 0.7 1.5 0 0.7 1.5 0 0.7 0.46 3.141592653589793 0.7 4.0 1.5707963267948966 0.45 4.0 1.5707963267948966 0.45
pair_coeff 2 ${comp} oxdna2/hbond   seqdep 1.0678 8.0 0.4 0.75 0.34 0.7 1.5 0 0.7 1.5 0 0.7 1.5 0 0.7 0.46 3.141592653589793 0.7 4.0 1.5707963267948966 0.45 4.0 1.5707963267948966 0.45
pair_coeff 2 3 oxdna2/hbond   seqdep 1.0678 8.0 0.4 0.75 0.34 0.7 1.5 0 0.7 1.5 0 0.7 1.5 0 0.7 0.46 3.141592653589793 0.7 4.0 1.5707963267948966 0.45 4.0 1.5707963267948966 0.45
next base
jump in.duplex4.8type loop
variable base loop ${ntype}
variable base loop 8
  variable basemod equal ${base}%4
  variable basemod equal 3%4
  if "${basemod} == 1" then     "variable comp equal ${base}+3"     "pair_coeff ${base} ${comp} oxdna2/hbond   seqdep 1.0678 8.0 0.4 0.75 0.34 0.7 1.5 0 0.7 1.5 0 0.7 1.5 0 0.7 0.46 3.141592653589793 0.7 4.0 1.5707963267948966 0.45 4.0 1.5707963267948966 0.45"
  if "${basemod} == 2" then     "variable comp equal ${base}+1"     "pair_coeff ${base} ${comp} oxdna2/hbond   seqdep 1.0678 8.0 0.4 0.75 0.34 0.7 1.5 0 0.7 1.5 0 0.7 1.5 0 0.7 0.46 3.141592653589793 0.7 4.0 1.5707963267948966 0.45 4.0 1.5707963267948966 0.45"
next base
jump in.duplex4.8type loop
variable base loop ${ntype}
variable base loop 8
  variable basemod equal ${base}%4
  variable basemod equal 4%4
  if "${basemod} == 1" then     "variable comp equal ${base}+3"     "pair_coeff ${base} ${comp} oxdna2/hbond   seqdep 1.0678 8.0 0.4 0.75 0.34 0.7 1.5 0 0.7 1.5 0 0.7 1.5 0 0.7 0.46 3.141592653589793 0.7 4.0 1.5707963267948966 0.45 4.0 1.5707963267948966 0.45"
  if "${basemod} == 2" then     "variable comp equal ${base}+1"     "pair_coeff ${base} ${comp} oxdna2/hbond   seqdep 1.0678 8.0 0.4 0.75 0.34 0.7 1.5 0 0.7 1.5 0 0.7 1.5 0 0.7 0.46 3.141592653589793 0.7 4.0 1.5707963267948966 0.45 4.0 1.5707963267948966 0.45"
next base
jump in.duplex4.8type loop
variable base loop ${ntype}
variable base loop 8
  variable basemod equal ${base}%4
  variable basemod equal 5%4
  if "${basemod} == 1" then     "variable comp equal ${base}+3"     "pair_coeff ${base} ${comp} oxdna2/hbond   seqdep 1.0678 8.0 0.4 0.75 0.34 0.7 1.5 0 0.7 1.5 0 0.7 1.5 0 0.7 0.46 3.141592653589793 0.7 4.0 1.5707963267948966 0.45 4.0 1.5707963267948966 0.45"
variable comp equal ${base}+3
variable comp equal 5+3
pair_coeff ${base} ${comp} oxdna2/hbond   seqdep 1.0678 8.0 0.4 0.75 0.34 0.7 1.5 0 0.7 1.5 0 0.7 1.5 0 0.7 0.46 3.141592653589793 0.7 4.0 1.5707963267948966 0.45 4.0 1.5707963267948966 0.45
pair_coeff 5 ${comp} oxdna2/hbond   seqdep 1.0678 8.0 0.4 0.75 0.34 0.7 1.5 0 0.7 1.5 0 0.7 1.5 0 0.7 0.46 3.141592653589793 0.7 4.0 1.5707963267948966 0.45 4.0 1.5707963267948966 0.45
pair_coeff 5 8 oxdna2/hbond   seqdep 1.0678 8.0 0.4 0.75 0.34 0.7 1.5 0 0.7 1.5 0 0.7 1.5 0 0.7 0.46 3.141592653589793 0.7 4.0 1.5707963267948966 0.45 4.0 1.5707963267948966 0.45
  if "${basemod} == 2" then     "variable comp equal ${base}+1"     "pair_coeff ${base} ${comp} oxdna2/hbond   seqdep 1.0678 8.0 0.4 0.75 0.34 0.7 1.5 0 0.7 1.5 0 0.7 1.5 0 0.7 0.46 3.141592653589793 0.7 4.0 1.5707963267948966 0.45 4.0 1.5707963267948966 0.45"
next base
jump in.duplex4.8type loop
variable base loop ${ntype}
variable base loop 8
  variable basemod equal ${base}%4
  variable basemod equal 6%4
  if "${basemod} == 1" then     "variable comp equal ${base}+3"     "pair_coeff ${base} ${comp} oxdna2/hbond   seqdep 1.0678 8.0 0.4 0.75 0.34 0.7 1.5 0 0.7 1.5 0 0.7 1.5 0 0.7 0.46 3.141592653589793 0.7 4.0 1.5707963267948966 0.45 4.0 1.5707963267948966 0.45"
  if "${basemod} == 2" then     "variable comp equal ${base}+1"     "pair_coeff ${base} ${comp} oxdna2/hbond   seqdep 1.0678 8.0 0.4 0.75 0.34 0.7 1.5 0 0.7 1.5 0 0.7 1.5 0 0.7 0.46 3.141592653589793 0.7 4.0 1.5707963267948966 0.45 4.0 1.5707963267948966 0.45"
variable comp equal ${base}+1
variable comp equal 6+1
pair_coeff ${base} ${comp} oxdna2/hbond   seqdep 1.0678 8.0 0.4 0.75 0.34 0.7 1.5 0 0.7 1.5 0 0.7 1.5 0 0.7 0.46 3.141592653589793 0.7 4.0 1.5707963267948966 0.45 4.0 1.5707963267948966 0.45
pair_coeff 6 ${comp} oxdna2/hbond   seqdep 1.0678 8.0 0.4 0.75 0.34 0.7 1.5 0 0.7 1.5 0 0.7 1.5 0 0.7 0.46 3.141592653589793 0.7 4.0 1.5707963267948966 0.45 4.0 1.5707963267948966 0.45
pair_coeff 6 7 oxdna2/hbond   seqdep 1.0678 8.0 0.4 0.75 0.34 0.7 1.5 0 0.7 1.5 0 0.7 1.5 0 0.7 0.46 3.141592653589793 0.7 4.0 1.5707963267948966 0.45 4.0 1.5707963267948966 0.45
next base
jump in.duplex4.8type loop
variable base loop ${ntype}
variable base loop 8
  variable basemod equal ${base}%4
  variable basemod equal 7%4
  if "${basemod} == 1" then     "variable comp equal ${base}+3"     "pair_coeff ${base} ${comp} oxdna2/hbond   seqdep 1.0678 8.0 0.4 0.75 0.34 0.7 1.5 0 0.7 1.5 0 0.7 1.5 0 0.7 0.46 3.141592653589793 0.7 4.0 1.5707963267948966 0.45 4.0 1.5707963267948966 0.45"
  if "${basemod} == 2" then     "variable comp equal ${base}+1"     "pair_coeff ${base} ${comp} oxdna2/hbond   seqdep 1.0678 8.0 0.4 0.75 0.34 0.7 1.5 0 0.7 1.5 0 0.7 1.5 0 0.7 0.46 3.141592653589793 0.7 4.0 1.5707963267948966 0.45 4.0 1.5707963267948966 0.45"
next base
jump in.duplex4.8type loop
variable base loop ${ntype}
variable base loop 8
  variable basemod equal ${base}%4
  variable basemod equal 8%4
  if "${basemod} == 1" then     "variable comp equal ${base}+3"     "pair_coeff ${base} ${comp} oxdna2/hbond   seqdep 1.0678 8.0 0.4 0.75 0.34 0.7 1.5 0 0.7 1.5 0 0.7 1.5 0 0.7 0.46 3.141592653589793 0.7 4.0 1.5707963267948966 0.45 4.0 1.5707963267948966 0.45"
  if "${basemod} == 2" then     "variable comp equal ${base}+1"     "pair_coeff ${base} ${comp} oxdna2/hbond   seqdep 1.0678 8.0 0.4 0.75 0.34 0.7 1.5 0 0.7 1.5 0 0.7 1.5 0 0.7 0.46 3.141592653589793 0.7 4.0 1.5707963267948966 0.45 4.0 1.5707963267948966 0.45"
next base
jump in.duplex4.8type loop

pair_coeff * * oxdna2/xstk    47.5 0.575 0.675 0.495 0.655 2.25 0.791592653589793 0.58 1.7 1.0 0.68 1.7 1.0 0.68 1.5 0 0.65 1.7 0.875 0.68 1.7 0.875 0.68
pair_coeff * * oxdna2/coaxstk 58.5 0.4 0.6 0.22 0.58 2.0 2.891592653589793 0.65 1.3 0 0.8 0.9 0 0.95 0.9 0 0.95 40.0 3.116592653589793
pair_coeff * * oxdna2/dh      ${T} 0.2 0.815
pair_coeff * * oxdna2/dh      0.1 0.2 0.815

# Langevin dynamics
fix 1 all nve/asphere
fix 2 all langevin ${T} ${T} 25.0 457145 angmom 10
fix 2 all langevin 0.1 ${T} 25.0 457145 angmom 10
fix 2 all langevin 0.1 0.1 25.0 457145 angmom 10

timestep 1e-4

#comm_style tiled
#fix 3 all balance 10000 1.1 rcb

#compute mol all chunk/atom molecule
#compute mychunk all vcm/chunk mol
#fix 4 all ave/time 10000 1 10000 c_mychunk[1] c_mychunk[2] c_mychunk[3] file vcm.txt mode vector

#dump pos all xyz ${ofreq} traj.${number}.xyz

compute quat all property/atom quatw quati quatj quatk
#dump quat all custom ${ofreq} quat.${number}.txt id c_quat[1] c_quat[2] c_quat[3] c_quat[4]
#dump_modify quat sort id
#dump_modify quat format line "%d  %13.6le  %13.6le  %13.6le  %13.6le"

compute erot all erotate/asphere
compute ekin all ke
compute epot all pe
variable erot equal c_erot
variable ekin equal c_ekin
variable epot equal c_epot
variable etot equal c_erot+c_ekin+c_epot

#dump out all custom ${ofreq} out.${number}.txt id mol type x y z ix iy iz c_quat[1] c_quat[2] c_quat[3] c_quat[4]  vx vy vz
#dump_modify out sort id
#dump_modify out format line "%d %d %d  %13.6le %13.6le %13.6le %d %d %d  %13.6le %13.6le %13.6le  %13.6le %13.6le %13.6le  %13.6le "

#restart 10000 config0_restart config1_restart
thermo_style custom temp press v_ekin v_erot v_epot v_etot
thermo 100
run 1000
Neighbor list info ...
  update every 10 steps, delay 0 steps, check yes
  max neighbors/atom: 2000, page size: 100000
  master list distance cutoff = 4.6389877
  ghost atom cutoff = 4.6389877
  binsize = 2.3194939, bins = 18 18 18
  6 neighbor lists, perpetual/occasional/extra = 6 0 0
  (1) pair oxdna2/excv, perpetual
      attributes: half, newton on
      pair build: half/bin/newton
      stencil: half/bin/3d/newton
      bin: standard
  (2) pair oxdna2/stk, perpetual, copy from (1)
      attributes: half, newton on
      pair build: copy
      stencil: none
      bin: none
  (3) pair oxdna2/hbond, perpetual, copy from (1)
      attributes: half, newton on
      pair build: copy
      stencil: none
      bin: none
  (4) pair oxdna2/xstk, perpetual, copy from (1)
      attributes: half, newton on
      pair build: copy
      stencil: none
      bin: none
  (5) pair oxdna2/coaxstk, perpetual, copy from (1)
      attributes: half, newton on
      pair build: copy
      stencil: none
      bin: none
  (6) pair oxdna2/dh, perpetual, copy from (1)
      attributes: half, newton on
      pair build: copy
      stencil: none
      bin: none
Per MPI rank memory allocation (min/avg/max) = 7.606 | 7.663 | 7.72 Mbytes
Temp Press v_ekin v_erot v_epot v_etot 
           0 6.7769766e-05            0            0   -41.628538   -41.628538 
0.00021604338 6.8447214e-05 0.0081016267  0.071970913   -41.662466   -41.582394 
0.00067661017 6.9981531e-05  0.025372881   0.21851919   -41.784966   -41.541074 
0.0013113729 7.3472204e-05  0.049176485   0.46691436   -41.978733   -41.462642 
0.0020786291 7.7179633e-05  0.077948591    0.6851181   -42.229224   -41.466158 
0.0026764423 8.0722238e-05   0.10036659    1.0002039   -42.515824   -41.415253 
0.0031064752 8.3460631e-05   0.11649282     1.348578   -42.839099   -41.374028 
0.0036699175 8.571141e-05   0.13762191     1.712807   -43.184905   -41.334476 
0.0041573524 8.6937034e-05   0.15590072    2.0504116   -43.533777   -41.327465 
0.0043713766 8.8031842e-05   0.16392662    2.4048576   -43.868575   -41.299791 
0.0046435645 8.8626656e-05   0.17413367    2.8454111   -44.172258   -41.152713 
Loop time of 0.435989 on 8 procs for 1000 steps with 26 atoms

Performance: 19817.026 tau/day, 2293.637 timesteps/s
19.4% CPU use with 8 MPI tasks x 1 OpenMP threads

MPI task timing breakdown:
Section |  min time  |  avg time  |  max time  |%varavg| %total
---------------------------------------------------------------
Pair    | 0.00093047 | 0.010487   | 0.022166   |   9.0 |  2.41
Bond    | 0.00010996 | 0.00032502 | 0.00054476 |   0.0 |  0.07
Neigh   | 0          | 0          | 0          |   0.0 |  0.00
Comm    | 0.37536    | 0.39103    | 0.40279    |   1.5 | 89.69
Output  | 0.006519   | 0.0080622  | 0.0097666  |   1.3 |  1.85
Modify  | 0.0003769  | 0.0012611  | 0.0022043  |   2.1 |  0.29
Other   |            | 0.02482    |            |       |  5.69

Nlocal:    3.25 ave 7.0 max 0.0 min
Histogram: 4 0 0 0 0 0 0 0 2 2
Nghost:    21.75 ave 24.0 max 19.0 min
Histogram: 2 0 2 0 0 0 0 0 0 4
Neighs:    40.125 ave 92.0 max 0.0 min
Histogram: 4 0 0 0 0 0 0 2 0 2

Total # of neighbors = 321
Ave neighs/atom = 12.346153846153847
Ave special neighs/atom = 1.8461538461538463
Neighbor list builds = 0
Dangerous builds = 0

#write_restart config.${number}.*


Total wall time: 0:00:00
