ITEM: TIMESTEP
0
ITEM: NUMBER OF ATOMS
26
ITEM: BOX BOUNDS pp pp pp
-2.0000000000000000e+01 2.0000000000000000e+01
-2.0000000000000000e+01 2.0000000000000000e+01
-2.0000000000000000e+01 2.0000000000000000e+01
ITEM: ATOMS id mol type x y z ix iy iz c_quat[1] c_quat[2] c_quat[3] c_quat[4] vx vy vz 
1 1 1 -6.000000e-01  0.000000e+00  0.000000e+00 0 0 0  1.000000e+00  0.000000e+00  0.000000e+00  0.000000e+00  0.000000e+00  0.000000e+00  0.000000e+00 
2 1 2 -4.957433e-01 -3.379920e-01  3.897629e-01 0 0 0  9.555728e-01  0.000000e+00  0.000000e+00  2.947552e-01  0.000000e+00  0.000000e+00  0.000000e+00 
3 1 3 -2.192046e-01 -5.585242e-01  7.795257e-01 0 0 0  8.262388e-01  0.000000e+00  0.000000e+00  5.633201e-01  0.000000e+00  0.000000e+00  0.000000e+00 
4 1 4  1.335126e-01 -5.849567e-01  1.169289e+00 0 0 0  6.234898e-01  0.000000e+00  0.000000e+00  7.818315e-01  0.000000e+00  0.000000e+00  0.000000e+00 
5 1 1  4.398311e-01 -4.081036e-01  1.559051e+00 0 0 0  3.653410e-01  0.000000e+00  0.000000e+00  9.308737e-01  0.000000e+00  0.000000e+00  0.000000e+00 
6 1 2  5.932985e-01 -8.942536e-02  1.948814e+00 0 0 0  7.473009e-02  0.000000e+00  0.000000e+00  9.972038e-01  0.000000e+00  0.000000e+00  0.000000e+00 
7 1 3  5.405813e-01  2.603302e-01  2.338577e+00 0 0 0 -2.225209e-01  0.000000e+00  0.000000e+00  9.749279e-01  0.000000e+00  0.000000e+00  0.000000e+00 
8 1 4  3.000000e-01  5.196152e-01  2.728340e+00 0 0 0 -5.000000e-01  0.000000e+00  0.000000e+00  8.660254e-01  0.000000e+00  0.000000e+00  0.000000e+00 
9 1 1 -4.483806e-02  5.983223e-01  3.118103e+00 0 0 0  7.330519e-01 -0.000000e+00  0.000000e+00 -6.801727e-01  0.000000e+00  0.000000e+00  0.000000e+00 
10 1 2 -3.740939e-01  4.690989e-01  3.507866e+00 0 0 0  9.009689e-01 -0.000000e+00  0.000000e+00 -4.338837e-01  0.000000e+00  0.000000e+00  0.000000e+00 
11 1 3 -5.733437e-01  1.768531e-01  3.897629e+00 0 0 0  9.888308e-01 -0.000000e+00  0.000000e+00 -1.490423e-01  0.000000e+00  0.000000e+00  0.000000e+00 
12 1 4 -5.733437e-01 -1.768531e-01  4.287391e+00 0 0 0  9.888308e-01  0.000000e+00  0.000000e+00  1.490423e-01  0.000000e+00  0.000000e+00  0.000000e+00 
13 1 1 -3.740939e-01 -4.690989e-01  4.677154e+00 0 0 0  9.009689e-01  0.000000e+00  0.000000e+00  4.338837e-01  0.000000e+00  0.000000e+00  0.000000e+00 
14 2 4  3.740939e-01  4.690989e-01  4.677154e+00 0 0 0  0.000000e+00 -4.338837e-01  9.009689e-01  0.000000e+00  0.000000e+00  0.000000e+00  0.000000e+00 
15 2 1  5.733437e-01  1.768531e-01  4.287391e+00 0 0 0 -0.000000e+00 -1.490423e-01  9.888308e-01  0.000000e+00  0.000000e+00  0.000000e+00  0.000000e+00 
16 2 2  5.733437e-01 -1.768531e-01  3.897629e+00 0 0 0 -0.000000e+00  1.490423e-01  9.888308e-01 -0.000000e+00  0.000000e+00  0.000000e+00  0.000000e+00 
17 2 3  3.740939e-01 -4.690989e-01  3.507866e+00 0 0 0 -0.000000e+00  4.338837e-01  9.009689e-01 -0.000000e+00  0.000000e+00  0.000000e+00  0.000000e+00 
18 2 4  4.483806e-02 -5.983223e-01  3.118103e+00 0 0 0  0.000000e+00  6.801727e-01  7.330519e-01  0.000000e+00  0.000000e+00  0.000000e+00  0.000000e+00 
19 2 1 -3.000000e-01 -5.196152e-01  2.728340e+00 0 0 0  0.000000e+00  8.660254e-01  5.000000e-01  0.000000e+00  0.000000e+00  0.000000e+00  0.000000e+00 
20 2 2 -5.405813e-01 -2.603302e-01  2.338577e+00 0 0 0  0.000000e+00  9.749279e-01  2.225209e-01  0.000000e+00  0.000000e+00  0.000000e+00  0.000000e+00 
21 2 3 -5.932985e-01  8.942536e-02  1.948814e+00 0 0 0  0.000000e+00  9.972038e-01 -7.473009e-02  0.000000e+00  0.000000e+00  0.000000e+00  0.000000e+00 
22 2 4 -4.398311e-01  4.081036e-01  1.559051e+00 0 0 0  0.000000e+00  9.308737e-01 -3.653410e-01  0.000000e+00  0.000000e+00  0.000000e+00  0.000000e+00 
23 2 1 -1.335126e-01  5.849567e-01  1.169289e+00 0 0 0  0.000000e+00  7.818315e-01 -6.234898e-01  0.000000e+00  0.000000e+00  0.000000e+00  0.000000e+00 
24 2 2  2.192046e-01  5.585242e-01  7.795257e-01 0 0 0  0.000000e+00  5.633201e-01 -8.262388e-01  0.000000e+00  0.000000e+00  0.000000e+00  0.000000e+00 
25 2 3  4.957433e-01  3.379920e-01  3.897629e-01 0 0 0 -0.000000e+00 -2.947552e-01  9.555728e-01  0.000000e+00  0.000000e+00  0.000000e+00  0.000000e+00 
26 2 4  6.000000e-01  0.000000e+00  1.110223e-16 0 0 0 -0.000000e+00  0.000000e+00  1.000000e+00 -0.000000e+00  0.000000e+00  0.000000e+00  0.000000e+00 
ITEM: TIMESTEP
10000
ITEM: NUMBER OF ATOMS
26
ITEM: BOX BOUNDS pp pp pp
-2.0000000000000000e+01 2.0000000000000000e+01
-2.0000000000000000e+01 2.0000000000000000e+01
-2.0000000000000000e+01 2.0000000000000000e+01
ITEM: ATOMS id mol type x y z ix iy iz c_quat[1] c_quat[2] c_quat[3] c_quat[4] vx vy vz 
1 1 1 -5.716887e-01  4.989747e-02 -1.292118e-01 0 0 0  9.964934e-01  2.232544e-02 -7.032997e-02 -3.944917e-02  3.161331e-01  1.355844e-01 -3.796371e-01 
2 1 2 -5.369121e-01 -2.591403e-01  2.699543e-01 0 0 0  9.586570e-01  1.323603e-01 -3.896209e-03  2.518775e-01  1.504879e-01 -5.744832e-02  1.325678e-03 
3 1 3 -2.974433e-01 -5.194967e-01  6.862726e-01 0 0 0  8.364601e-01  1.051906e-01  4.619480e-02  5.358502e-01 -1.101181e-01  2.726411e-01  1.695473e-01 
4 1 4  4.964093e-02 -6.274628e-01  1.081971e+00 0 0 0  6.451146e-01  1.394449e-01  1.119584e-01  7.428644e-01 -2.273794e-01  5.823386e-02 -1.605382e-01 
5 1 1  4.021892e-01 -4.814577e-01  1.508462e+00 0 0 0  3.777284e-01  8.792563e-02  1.430640e-01  9.105620e-01 -6.710425e-02 -1.610701e-01  3.828119e-02 
6 1 2  6.048250e-01 -1.662646e-01  1.922055e+00 0 0 0  6.112298e-02  3.590575e-02  1.686107e-01  9.831303e-01  3.939105e-02 -6.207187e-02  4.004589e-02 
7 1 3  5.788345e-01  2.195825e-01  2.300138e+00 0 0 0 -2.425183e-01  9.273232e-03  1.838644e-01  9.525192e-01  7.795801e-02  4.543744e-02 -1.258395e-01 
8 1 4  3.236240e-01  5.118066e-01  2.692379e+00 0 0 0 -4.936688e-01 -5.217866e-02  1.754788e-01  8.501622e-01 -1.226706e-01 -3.186215e-02  2.530912e-01 
9 1 1 -2.711610e-02  5.977041e-01  3.086571e+00 0 0 0  6.987532e-01  1.003219e-01 -1.617100e-01 -6.895864e-01  8.577668e-02  7.972751e-02 -3.999553e-02 
10 1 2 -3.659027e-01  4.836708e-01  3.543791e+00 0 0 0  8.961783e-01  9.383007e-02 -7.217900e-02 -4.276103e-01  2.114124e-02  7.836585e-02 -1.388755e-01 
11 1 3 -5.686018e-01  1.810200e-01  3.970479e+00 0 0 0  9.843163e-01  1.365209e-01 -2.053509e-02 -1.098265e-01  5.960979e-02 -2.144958e-01 -1.381339e-02 
12 1 4 -5.728896e-01 -2.077120e-01  4.305553e+00 0 0 0  9.653560e-01  1.711771e-01 -7.453734e-03  1.968012e-01  1.343338e-01 -1.688631e-01 -2.014047e-01 
13 1 1 -3.436543e-01 -5.688917e-01  4.608884e+00 0 0 0  8.535838e-01  6.913055e-02 -6.782142e-02  5.118750e-01  1.139815e-01 -8.898153e-02 -1.095851e-01 
14 2 4  3.501550e-01  4.078718e-01  4.834053e+00 0 0 0  6.827659e-02 -4.902275e-01  8.675668e-01  4.840664e-02 -3.299254e-01 -5.664005e-02  4.025865e-01 
15 2 1  5.487539e-01  2.374429e-01  4.405457e+00 0 0 0  6.942953e-02 -1.923893e-01  9.758554e-01 -7.663028e-02  7.075870e-02 -5.314308e-02  5.102414e-03 
16 2 2  5.970066e-01 -7.106567e-02  3.988012e+00 0 0 0  1.895008e-02  9.408096e-02  9.903096e-01 -1.003826e-01  7.302964e-02  1.051635e-01 -8.166823e-02 
17 2 3  4.227442e-01 -3.910378e-01  3.601644e+00 0 0 0 -1.860191e-02  3.846168e-01  9.133138e-01 -1.325965e-01  3.968593e-02  2.453307e-01  2.047211e-01 
18 2 4  7.974702e-02 -5.876806e-01  3.224982e+00 0 0 0 -3.549703e-02  6.704760e-01  7.299396e-01 -1.280238e-01 -2.590317e-03 -1.107933e-01  6.134748e-02 
19 2 1 -2.903446e-01 -5.293935e-01  2.787831e+00 0 0 0 -1.007203e-01  8.644005e-01  4.835274e-01 -9.417253e-02  1.111721e-01 -3.555792e-02 -1.059948e-01 
20 2 2 -5.044385e-01 -3.014732e-01  2.397224e+00 0 0 0 -1.627204e-01  9.574987e-01  2.286087e-01 -6.675624e-02  1.866252e-02 -6.286250e-02 -1.793903e-01 
21 2 3 -5.779854e-01  3.302367e-02  1.984756e+00 0 0 0 -1.549146e-01  9.831517e-01 -9.569399e-02 -1.602480e-02  6.058994e-02  8.600710e-02 -2.363524e-01 
22 2 4 -4.283347e-01  3.727573e-01  1.578256e+00 0 0 0 -1.281965e-01  9.151170e-01 -3.816400e-01  2.185165e-02 -1.654381e-02 -1.039488e-02  1.266706e-01 
23 2 1 -1.563499e-01  5.662357e-01  1.156378e+00 0 0 0 -1.372075e-01  7.543447e-01 -6.390063e-01  6.171739e-02  7.308046e-02 -1.102756e-02  7.568193e-02 
24 2 2  2.204568e-01  5.457689e-01  7.341859e-01 0 0 0 -9.644221e-02  5.332574e-01 -8.322341e-01  1.171402e-01 -3.618264e-02 -1.495986e-01  2.645564e-01 
25 2 3  5.242056e-01  3.071500e-01  3.846348e-01 0 0 0  7.687784e-02 -2.329329e-01  9.667167e-01 -7.273805e-02  6.319987e-03 -4.863278e-01  8.874275e-02 
26 2 4  6.320776e-01 -5.029821e-02 -5.679596e-03 0 0 0  3.933944e-02  7.908502e-02  9.937761e-01 -6.787527e-02 -2.359987e-01  3.568927e-01 -2.779151e-01 
