LAMMPS (30 Jul 2021)
# REAX potential for ZnOH2 system
# .....

units		real

atom_style	charge
read_data	data.ZnOH2
Reading data file ...
  orthogonal box = (0.0000000 0.0000000 0.0000000) to (25.000000 25.000000 25.000000)
  2 by 2 by 2 MPI processor grid
  reading atoms ...
  105 atoms
  read_data CPU = 0.002 seconds

pair_style	reax/c lmp_control
WARNING: Ignoring inactive control parameter: simulation_name (src/REAXFF/reaxff_control.cpp:97)
WARNING: Ignoring inactive control parameter: energy_update_freq (src/REAXFF/reaxff_control.cpp:97)
WARNING: Support for writing native trajectories has been removed after LAMMPS version 8 April 2021 (src/REAXFF/reaxff_control.cpp:113)
WARNING: Ignoring inactive control parameter: traj_title (src/REAXFF/reaxff_control.cpp:97)
WARNING: Ignoring inactive control parameter: atom_info (src/REAXFF/reaxff_control.cpp:97)
WARNING: Ignoring inactive control parameter: atom_forces (src/REAXFF/reaxff_control.cpp:97)
WARNING: Ignoring inactive control parameter: atom_velocities (src/REAXFF/reaxff_control.cpp:97)
WARNING: Ignoring inactive control parameter: bond_info (src/REAXFF/reaxff_control.cpp:97)
WARNING: Ignoring inactive control parameter: angle_info (src/REAXFF/reaxff_control.cpp:97)
pair_coeff	* * ffield.reax.ZnOH H O Zn
Reading potential file ffield.reax.ZnOH with DATE: 2011-02-18
WARNING: Changed valency_val to valency_boc for X (src/REAXFF/reaxff_ffield.cpp:294)

neighbor	2 bin
neigh_modify	every 10 delay 0 check no

fix		1 all nve
fix             2 all qeq/reax 1 0.0 10.0 1e-6 param.qeq
fix             3 all temp/berendsen 500.0 500.0 100.0

timestep	0.25

#dump		1 all atom 30 dump.reax.znoh

run		3000

CITE-CITE-CITE-CITE-CITE-CITE-CITE-CITE-CITE-CITE-CITE-CITE-CITE

Your simulation uses code contributions which should be cited:

- pair reaxff command:

@Article{Aktulga12,
 author = {H. M. Aktulga, J. C. Fogarty, S. A. Pandit, A. Y. Grama},
 title = {Parallel reactive molecular dynamics: Numerical methods and algorithmic techniques},
 journal = {Parallel Computing},
 year =    2012,
 volume =  38,
 pages =   {245--259}
}

- fix qeq/reaxff command:

@Article{Aktulga12,
 author = {H. M. Aktulga, J. C. Fogarty, S. A. Pandit, A. Y. Grama},
 title = {Parallel reactive molecular dynamics: Numerical methods and algorithmic techniques},
 journal = {Parallel Computing},
 year =    2012,
 volume =  38,
 pages =   {245--259}
}

CITE-CITE-CITE-CITE-CITE-CITE-CITE-CITE-CITE-CITE-CITE-CITE-CITE

Neighbor list info ...
  update every 10 steps, delay 0 steps, check no
  max neighbors/atom: 2000, page size: 100000
  master list distance cutoff = 12
  ghost atom cutoff = 12
  binsize = 6, bins = 5 5 5
  2 neighbor lists, perpetual/occasional/extra = 2 0 0
  (1) pair reax/c, perpetual
      attributes: half, newton off, ghost
      pair build: half/bin/newtoff/ghost
      stencil: full/ghost/bin/3d
      bin: standard
  (2) fix qeq/reax, perpetual, copy from (1)
      attributes: half, newton off, ghost
      pair build: copy
      stencil: none
      bin: none
Per MPI rank memory allocation (min/avg/max) = 8.564 | 9.887 | 11.13 Mbytes
Step Temp E_pair E_mol TotEng Press 
       0            0   -7900.2668            0   -7900.2668    60.076093 
    3000    547.20432   -7938.3792            0   -7768.7435    -527.3617 
Loop time of 2.49531 on 8 procs for 3000 steps with 105 atoms

Performance: 25.969 ns/day, 0.924 hours/ns, 1202.253 timesteps/s
99.7% CPU use with 8 MPI tasks x no OpenMP threads

MPI task timing breakdown:
Section |  min time  |  avg time  |  max time  |%varavg| %total
---------------------------------------------------------------
Pair    | 0.88427    | 1.0811     | 1.3237     |  12.1 | 43.32
Neigh   | 0.099688   | 0.1385     | 0.18067    |   6.4 |  5.55
Comm    | 0.10552    | 0.34796    | 0.53812    |  21.3 | 13.94
Output  | 6.9079e-05 | 7.3795e-05 | 0.00010071 |   0.0 |  0.00
Modify  | 0.88271    | 0.92615    | 0.96648    |   2.7 | 37.12
Other   |            | 0.001584   |            |       |  0.06

Nlocal:        13.1250 ave          28 max           2 min
Histogram: 2 0 1 0 2 1 0 1 0 1
Nghost:        305.625 ave         427 max         193 min
Histogram: 1 0 1 2 0 0 3 0 0 1
Neighs:        603.500 ave        1415 max          55 min
Histogram: 2 0 0 2 1 2 0 0 0 1

Total # of neighbors = 4828
Ave neighs/atom = 45.980952
Neighbor list builds = 300
Dangerous builds not checked
Total wall time: 0:00:02
