LAMMPS (29 Aug 2024 - Development - f820c928a)
# REAX potential for ZnOH2 system
# .....

units		real

atom_style	charge
read_data	data.ZnOH2
Reading data file ...
  orthogonal box = (0 0 0) to (25 25 25)
  2 by 2 by 2 MPI processor grid
  reading atoms ...
  105 atoms
  read_data CPU = 0.004 seconds

pair_style	reaxff lmp_control
WARNING: Ignoring inactive control parameter: simulation_name (src/REAXFF/reaxff_control.cpp:98)
WARNING: Ignoring inactive control parameter: energy_update_freq (src/REAXFF/reaxff_control.cpp:98)
WARNING: Support for writing native trajectories has been removed after LAMMPS version 8 April 2021 (src/REAXFF/reaxff_control.cpp:114)
WARNING: Ignoring inactive control parameter: traj_title (src/REAXFF/reaxff_control.cpp:98)
WARNING: Ignoring inactive control parameter: atom_info (src/REAXFF/reaxff_control.cpp:98)
WARNING: Ignoring inactive control parameter: atom_forces (src/REAXFF/reaxff_control.cpp:98)
WARNING: Ignoring inactive control parameter: atom_velocities (src/REAXFF/reaxff_control.cpp:98)
WARNING: Ignoring inactive control parameter: bond_info (src/REAXFF/reaxff_control.cpp:98)
WARNING: Ignoring inactive control parameter: angle_info (src/REAXFF/reaxff_control.cpp:98)
pair_coeff	* * ffield.reax.ZnOH H O Zn
Reading potential file ffield.reax.ZnOH with DATE: 2011-02-18
WARNING: Changed valency_val to valency_boc for X (src/REAXFF/reaxff_ffield.cpp:294)

neighbor	2 bin
neigh_modify	every 10 delay 0 check no

fix		1 all nve
fix             2 all qeq/reax 1 0.0 10.0 1e-6 param.qeq
fix             3 all temp/berendsen 500.0 500.0 100.0

timestep	0.25

#dump		1 all atom 30 dump.reax.znoh

run		3000

CITE-CITE-CITE-CITE-CITE-CITE-CITE-CITE-CITE-CITE-CITE-CITE-CITE

Your simulation uses code contributions which should be cited:

- Type Label Framework: https://doi.org/10.1021/acs.jpcb.3c08419

@Article{Gissinger24,
 author = {Jacob R. Gissinger, Ilia Nikiforov, Yaser Afshar, Brendon Waters, Moon-ki Choi, Daniel S. Karls, Alexander Stukowski, Wonpil Im, Hendrik Heinz, Axel Kohlmeyer, and Ellad B. Tadmor},
 title = {Type Label Framework for Bonded Force Fields in LAMMPS},
 journal = {J. Phys. Chem. B},
 year =    2024,
 volume =  128,
 number =  13,
 pages =   {3282--3297}
}

- pair reaxff command: doi:10.1016/j.parco.2011.08.005

@Article{Aktulga12,
 author = {H. M. Aktulga and J. C. Fogarty and S. A. Pandit and A. Y. Grama},
 title = {Parallel Reactive Molecular Dynamics: {N}umerical Methods and Algorithmic Techniques},
 journal = {Parallel Computing},
 year =    2012,
 volume =  38,
 number =  {4--5},
 pages =   {245--259}
}

- fix qeq/reaxff command: doi:10.1016/j.parco.2011.08.005

@Article{Aktulga12,
 author = {H. M. Aktulga and J. C. Fogarty and S. A. Pandit and A. Y. Grama},
 title = {Parallel Reactive Molecular Dynamics: {N}umerical Methods and Algorithmic Techniques},
 journal = {Parallel Computing},
 year =    2012,
 volume =  38,
 pages =   {245--259}
}

CITE-CITE-CITE-CITE-CITE-CITE-CITE-CITE-CITE-CITE-CITE-CITE-CITE

Neighbor list info ...
  update: every = 10 steps, delay = 0 steps, check = no
  max neighbors/atom: 2000, page size: 100000
  master list distance cutoff = 12
  ghost atom cutoff = 12
  binsize = 6, bins = 5 5 5
  2 neighbor lists, perpetual/occasional/extra = 2 0 0
  (1) pair reaxff, perpetual
      attributes: half, newton off, ghost
      pair build: half/bin/ghost/newtoff
      stencil: full/ghost/bin/3d
      bin: standard
  (2) fix qeq/reax, perpetual, copy from (1)
      attributes: half, newton off
      pair build: copy
      stencil: none
      bin: none
Per MPI rank memory allocation (min/avg/max) = 8.564 | 9.887 | 11.13 Mbytes
   Step          Temp          E_pair         E_mol          TotEng         Press     
         0   0             -7900.2668      0             -7900.2668      60.076093    
      3000   540.9943      -7936.4922      0             -7768.7816     -560.76109    
Loop time of 2.7552 on 8 procs for 3000 steps with 105 atoms

Performance: 23.519 ns/day, 1.020 hours/ns, 1088.849 timesteps/s, 114.329 katom-step/s
96.1% CPU use with 8 MPI tasks x no OpenMP threads

MPI task timing breakdown:
Section |  min time  |  avg time  |  max time  |%varavg| %total
---------------------------------------------------------------
Pair    | 0.82923    | 1.0044     | 1.134      |   9.4 | 36.45
Neigh   | 0.12949    | 0.18403    | 0.22958    |   7.2 |  6.68
Comm    | 0.24944    | 0.41817    | 0.57617    |  16.9 | 15.18
Output  | 8.0469e-05 | 8.4137e-05 | 0.0001035  |   0.0 |  0.00
Modify  | 1.0967     | 1.1466     | 1.2001     |   2.8 | 41.62
Other   |            | 0.001889   |            |       |  0.07

Nlocal:         13.125 ave          28 max           2 min
Histogram: 2 0 1 0 2 1 0 1 0 1
Nghost:         306.75 ave         427 max         194 min
Histogram: 1 0 1 2 0 0 3 0 0 1
Neighs:        605.125 ave        1425 max          55 min
Histogram: 2 0 0 2 1 2 0 0 0 1

Total # of neighbors = 4841
Ave neighs/atom = 46.104762
Neighbor list builds = 300
Dangerous builds not checked
Total wall time: 0:00:02
