LAMMPS (4 Jan 2019)
# REAX potential for ZnOH2 system
# .....

units		real

atom_style	charge
read_data	data.ZnOH2
  orthogonal box = (0 0 0) to (25 25 25)
  2 by 2 by 2 MPI processor grid
  reading atoms ...
  105 atoms

pair_style	reax/c lmp_control
pair_coeff	* * ffield.reax.ZnOH H O Zn
Reading potential file ffield.reax.ZnOH with DATE: 2011-02-18

neighbor	2 bin
neigh_modify	every 10 delay 0 check no

fix		1 all nve
fix             2 all qeq/reax 1 0.0 10.0 1e-6 param.qeq
fix             3 all temp/berendsen 500.0 500.0 100.0

timestep	0.25

#dump		1 all atom 30 dump.reax.znoh

run		3000
Neighbor list info ...
  update every 10 steps, delay 0 steps, check no
  max neighbors/atom: 2000, page size: 100000
  master list distance cutoff = 12
  ghost atom cutoff = 12
  binsize = 6, bins = 5 5 5
  2 neighbor lists, perpetual/occasional/extra = 2 0 0
  (1) pair reax/c, perpetual
      attributes: half, newton off, ghost
      pair build: half/bin/newtoff/ghost
      stencil: half/ghost/bin/3d/newtoff
      bin: standard
  (2) fix qeq/reax, perpetual, copy from (1)
      attributes: half, newton off, ghost
      pair build: copy
      stencil: none
      bin: none
Per MPI rank memory allocation (min/avg/max) = 9.344 | 10.94 | 12.62 Mbytes
Step Temp E_pair E_mol TotEng Press 
       0            0   -7900.2668            0   -7900.2668    60.076093 
    3000    538.55826   -7935.6527            0   -7768.6974   -521.39621 
Loop time of 3.27972 on 8 procs for 3000 steps with 105 atoms

Performance: 19.758 ns/day, 1.215 hours/ns, 914.713 timesteps/s
99.6% CPU use with 8 MPI tasks x no OpenMP threads

MPI task timing breakdown:
Section |  min time  |  avg time  |  max time  |%varavg| %total
---------------------------------------------------------------
Pair    | 1.9422     | 1.9909     | 2.0784     |   3.3 | 60.70
Neigh   | 0.097489   | 0.13261    | 0.16782    |   5.9 |  4.04
Comm    | 0.080493   | 0.16648    | 0.22684    |  11.4 |  5.08
Output  | 2.8591e-05 | 3.0695e-05 | 4.2123e-05 |   0.0 |  0.00
Modify  | 0.94839    | 0.98819    | 1.0205     |   2.1 | 30.13
Other   |            | 0.001508   |            |       |  0.05

Nlocal:    13.125 ave 28 max 2 min
Histogram: 2 0 1 0 2 1 0 1 0 1
Nghost:    306.75 ave 427 max 194 min
Histogram: 1 0 1 2 0 0 3 0 0 1
Neighs:    603.5 ave 1419 max 55 min
Histogram: 2 0 0 2 1 2 0 0 0 1

Total # of neighbors = 4828
Ave neighs/atom = 45.981
Neighbor list builds = 300
Dangerous builds not checked

Please see the log.cite file for references relevant to this simulation

Total wall time: 0:00:03
