LAMMPS (4 Jan 2019)
# Compute elastic constant tensor for a crystal at finite temperature
#
# WARNING: This script attempts to measure small differences in
# statistical averages generated by finite temperature MD simulations.
# This creates many more opportunities for errors to occur, compared
# to the zero temperature version provided in examples/ELASTIC.
# Hence, it is always a good idea to start with the zero temperature
# calculation, before attempting to use this script.
#
# Written by Aidan Thompson (Sandia, athomps@sandia.gov)
#
#  This script uses the following three include files.
#
#   init.mod      (must be modified for different crystal structures)
# 	       	  Define units, MD parameters, deformation parameters,
#		  and initial configuration of the atoms and simulation cell.
#
#
#   potential.mod    (must be modified for different pair styles)
# 		     Define pair style and other attributes
#		     not stored in restart file
#
#
#   displace.mod    (displace.mod should not need to be modified)
# 		    Perform positive and negative box displacements
# 		    in direction ${dir} and size ${up}.
# 		    It uses the resultant changes
#		    in stress to compute one
# 		    row of the elastic stiffness tensor
#
#		    Inputs variables:
#		    	   dir = the Voigt deformation component
#		    		    (1,2,3,4,5,6)
#		    Global constants:
#       	    	   up = the deformation magnitude (strain units)
#       		   cfac = conversion from LAMMPS pressure units to
#               	   output units for elastic constants
#
#
#  To run this on a different system, it should only be necessary to
#  modify the files init.mod and potential.mod. In order to calculate
#  the elastic constants correctly, care must be taken to specify
#  the correct units in init.mod (units, cfac and cunits). It is also
#  important to verify that the MD sampling of stress components
#  is generating accurate statistical averages.
#  One indication of this is that the elastic constants are insensitive
#  to the choice of the variable ${up} in init.mod. Another is to
#  check for finite size effects.
#

include init.mod
# NOTE: This script can be modified for different atomic structures,
# units, etc. See in.elastic for more info.
#

# Define the finite deformation size. Try several values of this
# variable to verify that results do not depend on it.
variable up equal 2.0e-2

# metal units, elastic constants in GPa
units		metal
variable cfac equal 1.0e-4
variable cunits string GPa

# Define MD parameters
variable nevery equal 10                  # sampling interval
variable nrepeat equal 10                 # number of samples
variable nfreq equal ${nevery}*${nrepeat} # length of one average
variable nfreq equal 10*${nrepeat} 
variable nfreq equal 10*10 
variable nthermo equal ${nfreq}           # interval for thermo output
variable nthermo equal 100           
variable nequil equal 10*${nthermo}       # length of equilibration run
variable nequil equal 10*100       
variable nrun equal 3*${nthermo}          # length of equilibrated run
variable nrun equal 3*100          
variable temp equal 2000.0                # temperature of initial sample
variable timestep equal 0.001             # timestep
variable mass1 equal 28.06                # mass
variable adiabatic equal 0                # adiabatic (1) or isothermal (2)
variable tdamp equal 0.01                 # time constant for thermostat
variable seed equal 123457                # seed for thermostat

# generate the box and atom positions using a diamond lattice
variable a equal 5.431

boundary	p p p

lattice         diamond $a
lattice         diamond 5.431
Lattice spacing in x,y,z = 5.431 5.431 5.431
region		box prism 0 3.0 0 3.0 0 3.0 0.0 0.0 0.0
create_box	1 box
Created triclinic box = (0 0 0) to (16.293 16.293 16.293) with tilt (0 0 0)
  2 by 2 by 2 MPI processor grid
create_atoms	1 box
Created 216 atoms
  Time spent = 0.000709707 secs
mass 1 ${mass1}
mass 1 28.06
velocity	all create ${temp} 87287
velocity	all create 2000 87287



# Compute initial state

variable thermostat equal 1
include potential.mod
# NOTE: This script can be modified for different pair styles
# See in.elastic for more info.

reset_timestep 0

# Choose potential
pair_style	sw
pair_coeff * * Si.sw Si
Reading potential file Si.sw with DATE: 2007-06-11

# Setup neighbor style
neighbor 1.0 nsq
neigh_modify once no every 1 delay 0 check yes

# Setup output

fix avp all ave/time  ${nevery} ${nrepeat} ${nfreq} c_thermo_press mode vector
fix avp all ave/time  10 ${nrepeat} ${nfreq} c_thermo_press mode vector
fix avp all ave/time  10 10 ${nfreq} c_thermo_press mode vector
fix avp all ave/time  10 10 100 c_thermo_press mode vector
thermo		${nthermo}
thermo		100
thermo_style custom step temp pe press f_avp[1] f_avp[2] f_avp[3] f_avp[4] f_avp[5] f_avp[6]
thermo_modify norm no

# Setup MD

timestep ${timestep}
timestep 0.001
fix 4 all nve
if "${thermostat} == 1" then    "fix 5 all langevin ${temp} ${temp} ${tdamp} ${seed}"
fix 5 all langevin ${temp} ${temp} ${tdamp} ${seed}
fix 5 all langevin 2000 ${temp} ${tdamp} ${seed}
fix 5 all langevin 2000 2000 ${tdamp} ${seed}
fix 5 all langevin 2000 2000 0.01 ${seed}
fix 5 all langevin 2000 2000 0.01 123457


run ${nequil}
run 1000
Neighbor list info ...
  update every 1 steps, delay 0 steps, check yes
  max neighbors/atom: 2000, page size: 100000
  master list distance cutoff = 4.77118
  ghost atom cutoff = 4.77118
  1 neighbor lists, perpetual/occasional/extra = 1 0 0
  (1) pair sw, perpetual
      attributes: full, newton on
      pair build: full/nsq
      stencil: none
      bin: none
Per MPI rank memory allocation (min/avg/max) = 3.052 | 3.052 | 3.052 Mbytes
Step Temp PotEng Press f_avp[1] f_avp[2] f_avp[3] f_avp[4] f_avp[5] f_avp[6] 
       0         2000    -936.7056    13698.023            0            0            0            0            0            0 
     100    2037.8423   -872.86704    22040.539    22379.232    21986.784    22470.657   -1891.7992   -4498.4762    1426.1519 
     200    1975.4426   -874.46205    18595.993    19428.861    18281.258    18928.652    1444.3378    814.90331   -2782.3826 
     300    1796.6936   -874.95837    16153.274    16632.752    17026.258    17413.811    1125.2433     4166.907    -78.29062 
     400    2020.2945   -870.81818    18516.785    16887.567    19118.136    17597.887    600.70416   -1925.3276   -1096.8789 
     500    2132.5025   -869.42117    20276.524    19854.404    18635.216    19738.273   -1549.3692    2189.1754    2988.5774 
     600    1921.9347   -876.78805    15517.182    15771.037     17858.26    16923.167    2087.1218    3096.6374   -2875.8515 
     700    2083.5453   -870.87124    17198.797    14854.356    15909.152    14869.773   -6729.2161    3118.7033   -2071.2011 
     800    2066.8213   -875.35759    18815.008    17341.785    18718.211    15530.797   -4445.6156    2466.4534    2871.2069 
     900    2094.2299    -876.1332    18140.409    17053.398    19588.861        16375   -3557.6565   -6919.0478   -1900.9166 
    1000    2008.3344   -878.86769     17035.49    18287.746    18627.091    16029.997    1695.1152   -6221.4232     613.0731 
Loop time of 0.143331 on 8 procs for 1000 steps with 216 atoms

Performance: 602.800 ns/day, 0.040 hours/ns, 6976.856 timesteps/s
98.7% CPU use with 8 MPI tasks x no OpenMP threads

MPI task timing breakdown:
Section |  min time  |  avg time  |  max time  |%varavg| %total
---------------------------------------------------------------
Pair    | 0.085081   | 0.09015    | 0.099256   |   1.4 | 62.90
Neigh   | 0.0010944  | 0.0011925  | 0.0012982  |   0.2 |  0.83
Comm    | 0.035875   | 0.045017   | 0.050027   |   2.0 | 31.41
Output  | 0.00021168 | 0.0002184  | 0.00025008 |   0.0 |  0.15
Modify  | 0.0027322  | 0.0028563  | 0.0029933  |   0.1 |  1.99
Other   |            | 0.003897   |            |       |  2.72

Nlocal:    27 ave 30 max 24 min
Histogram: 2 1 0 0 0 1 1 0 2 1
Nghost:    252.5 ave 255 max 250 min
Histogram: 1 0 2 0 2 0 0 0 1 2
Neighs:    0 ave 0 max 0 min
Histogram: 8 0 0 0 0 0 0 0 0 0
FullNghs:  701.75 ave 788 max 613 min
Histogram: 2 0 1 0 0 1 1 1 1 1

Total # of neighbors = 5614
Ave neighs/atom = 25.9907
Neighbor list builds = 32
Dangerous builds = 0

if "${adiabatic} == 1" then "variable thermostat equal 0" else "variable thermostat equal 1"
variable thermostat equal 1

print ${thermostat}
print 1
1

include potential.mod
# NOTE: This script can be modified for different pair styles
# See in.elastic for more info.

reset_timestep 0

# Choose potential
pair_style	sw
pair_coeff * * Si.sw Si
Reading potential file Si.sw with DATE: 2007-06-11

# Setup neighbor style
neighbor 1.0 nsq
neigh_modify once no every 1 delay 0 check yes

# Setup output

fix avp all ave/time  ${nevery} ${nrepeat} ${nfreq} c_thermo_press mode vector
fix avp all ave/time  10 ${nrepeat} ${nfreq} c_thermo_press mode vector
fix avp all ave/time  10 10 ${nfreq} c_thermo_press mode vector
fix avp all ave/time  10 10 100 c_thermo_press mode vector
thermo		${nthermo}
thermo		100
thermo_style custom step temp pe press f_avp[1] f_avp[2] f_avp[3] f_avp[4] f_avp[5] f_avp[6]
WARNING: New thermo_style command, previous thermo_modify settings will be lost (../output.cpp:705)
thermo_modify norm no

# Setup MD

timestep ${timestep}
timestep 0.001
fix 4 all nve
if "${thermostat} == 1" then    "fix 5 all langevin ${temp} ${temp} ${tdamp} ${seed}"
fix 5 all langevin ${temp} ${temp} ${tdamp} ${seed}
fix 5 all langevin 2000 ${temp} ${tdamp} ${seed}
fix 5 all langevin 2000 2000 ${tdamp} ${seed}
fix 5 all langevin 2000 2000 0.01 ${seed}
fix 5 all langevin 2000 2000 0.01 123457


run ${nrun}
run 300
Per MPI rank memory allocation (min/avg/max) = 3.052 | 3.052 | 3.052 Mbytes
Step Temp PotEng Press f_avp[1] f_avp[2] f_avp[3] f_avp[4] f_avp[5] f_avp[6] 
       0    2008.3344   -878.86769     17035.49            0            0            0            0            0            0 
     100    2089.9852   -880.96483     18809.41    17015.897    17234.101    19676.655   -649.12213    814.51313    1140.2056 
     200    2153.8054   -874.86507    20321.699    18443.439    18808.905    18879.297   -1934.9046   -958.53397    3627.1333 
     300    1947.9897   -879.29443    14968.679    16486.529    16537.449    18825.491   -1018.5796   -1578.2266    2996.4883 
Loop time of 0.0435535 on 8 procs for 300 steps with 216 atoms

Performance: 595.130 ns/day, 0.040 hours/ns, 6888.075 timesteps/s
99.0% CPU use with 8 MPI tasks x no OpenMP threads

MPI task timing breakdown:
Section |  min time  |  avg time  |  max time  |%varavg| %total
---------------------------------------------------------------
Pair    | 0.021911   | 0.027869   | 0.03266    |   1.8 | 63.99
Neigh   | 0.00032806 | 0.00038758 | 0.00042916 |   0.0 |  0.89
Comm    | 0.0084575  | 0.013173   | 0.019135   |   2.6 | 30.25
Output  | 6.3653e-05 | 6.8323e-05 | 8.1653e-05 |   0.0 |  0.16
Modify  | 0.00083389 | 0.00087193 | 0.00090762 |   0.0 |  2.00
Other   |            | 0.001183   |            |       |  2.72

Nlocal:    27 ave 30 max 23 min
Histogram: 1 0 1 0 1 2 0 1 0 2
Nghost:    252 ave 256 max 249 min
Histogram: 2 0 2 0 1 1 0 0 1 1
Neighs:    0 ave 0 max 0 min
Histogram: 8 0 0 0 0 0 0 0 0 0
FullNghs:  702 ave 785 max 598 min
Histogram: 1 0 1 0 1 2 1 0 0 2

Total # of neighbors = 5616
Ave neighs/atom = 26
Neighbor list builds = 10
Dangerous builds = 0

variable pxx0 equal f_avp[1]
variable pyy0 equal f_avp[2]
variable pzz0 equal f_avp[3]
variable pxy0 equal f_avp[4]
variable pxz0 equal f_avp[5]
variable pyz0 equal f_avp[6]

variable tmp equal lx
variable lx0 equal ${tmp}
variable lx0 equal 16.293
variable tmp equal ly
variable ly0 equal ${tmp}
variable ly0 equal 16.293
variable tmp equal lz
variable lz0 equal ${tmp}
variable lz0 equal 16.293

# These formulas define the derivatives w.r.t. strain components
# Constants uses $, variables use v_
variable d1 equal -(v_pxx1-${pxx0})/(v_delta/v_len0)*${cfac}
variable d1 equal -(v_pxx1-16486.529268083)/(v_delta/v_len0)*${cfac}
variable d1 equal -(v_pxx1-16486.529268083)/(v_delta/v_len0)*0.0001
variable d2 equal -(v_pyy1-${pyy0})/(v_delta/v_len0)*${cfac}
variable d2 equal -(v_pyy1-16537.4487689976)/(v_delta/v_len0)*${cfac}
variable d2 equal -(v_pyy1-16537.4487689976)/(v_delta/v_len0)*0.0001
variable d3 equal -(v_pzz1-${pzz0})/(v_delta/v_len0)*${cfac}
variable d3 equal -(v_pzz1-18825.4909279495)/(v_delta/v_len0)*${cfac}
variable d3 equal -(v_pzz1-18825.4909279495)/(v_delta/v_len0)*0.0001
variable d4 equal -(v_pyz1-${pyz0})/(v_delta/v_len0)*${cfac}
variable d4 equal -(v_pyz1-2996.48828858076)/(v_delta/v_len0)*${cfac}
variable d4 equal -(v_pyz1-2996.48828858076)/(v_delta/v_len0)*0.0001
variable d5 equal -(v_pxz1-${pxz0})/(v_delta/v_len0)*${cfac}
variable d5 equal -(v_pxz1--1578.22659146374)/(v_delta/v_len0)*${cfac}
variable d5 equal -(v_pxz1--1578.22659146374)/(v_delta/v_len0)*0.0001
variable d6 equal -(v_pxy1-${pxy0})/(v_delta/v_len0)*${cfac}
variable d6 equal -(v_pxy1--1018.57961013871)/(v_delta/v_len0)*${cfac}
variable d6 equal -(v_pxy1--1018.57961013871)/(v_delta/v_len0)*0.0001

# Write restart
write_restart restart.equil

# uxx Perturbation

variable dir equal 1
include displace.mod
# NOTE: This script should not need to be
# modified. See in.elastic for more info.
#
# Find which reference length to use

if "${dir} == 1" then    "variable len0 equal ${lx0}"
variable len0 equal ${lx0}
variable len0 equal 16.293
if "${dir} == 2" then    "variable len0 equal ${ly0}"
if "${dir} == 3" then    "variable len0 equal ${lz0}"
if "${dir} == 4" then    "variable len0 equal ${lz0}"
if "${dir} == 5" then    "variable len0 equal ${lz0}"
if "${dir} == 6" then    "variable len0 equal ${ly0}"

# Reset box and simulation parameters

clear
box tilt large
read_restart restart.equil
  restoring atom style atomic from restart
  triclinic box = (0 0 0) to (16.293 16.293 16.293) with tilt (0 0 0)
  2 by 2 by 2 MPI processor grid
  pair style sw stores no restart info
  216 atoms
include potential.mod
# NOTE: This script can be modified for different pair styles
# See in.elastic for more info.

reset_timestep 0

# Choose potential
pair_style	sw
pair_coeff * * Si.sw Si
Reading potential file Si.sw with DATE: 2007-06-11

# Setup neighbor style
neighbor 1.0 nsq
neigh_modify once no every 1 delay 0 check yes

# Setup output

fix avp all ave/time  ${nevery} ${nrepeat} ${nfreq} c_thermo_press mode vector
fix avp all ave/time  10 ${nrepeat} ${nfreq} c_thermo_press mode vector
fix avp all ave/time  10 10 ${nfreq} c_thermo_press mode vector
fix avp all ave/time  10 10 100 c_thermo_press mode vector
thermo		${nthermo}
thermo		100
thermo_style custom step temp pe press f_avp[1] f_avp[2] f_avp[3] f_avp[4] f_avp[5] f_avp[6]
thermo_modify norm no

# Setup MD

timestep ${timestep}
timestep 0.001
fix 4 all nve
if "${thermostat} == 1" then    "fix 5 all langevin ${temp} ${temp} ${tdamp} ${seed}"
fix 5 all langevin ${temp} ${temp} ${tdamp} ${seed}
fix 5 all langevin 2000 ${temp} ${tdamp} ${seed}
fix 5 all langevin 2000 2000 ${tdamp} ${seed}
fix 5 all langevin 2000 2000 0.01 ${seed}
fix 5 all langevin 2000 2000 0.01 123457



# Negative deformation

variable delta equal -${up}*${len0}
variable delta equal -0.02*${len0}
variable delta equal -0.02*16.293
variable deltaxy equal -${up}*xy
variable deltaxy equal -0.02*xy
variable deltaxz equal -${up}*xz
variable deltaxz equal -0.02*xz
variable deltayz equal -${up}*yz
variable deltayz equal -0.02*yz
if "${dir} == 1" then    "change_box all x delta 0 ${delta} xy delta ${deltaxy} xz delta ${deltaxz} remap units box"
change_box all x delta 0 ${delta} xy delta ${deltaxy} xz delta ${deltaxz} remap units box
change_box all x delta 0 -0.32586 xy delta ${deltaxy} xz delta ${deltaxz} remap units box
change_box all x delta 0 -0.32586 xy delta -0 xz delta ${deltaxz} remap units box
change_box all x delta 0 -0.32586 xy delta -0 xz delta -0 remap units box
  triclinic box = (0 0 0) to (15.9671 16.293 16.293) with tilt (0 0 0)
  triclinic box = (0 0 0) to (15.9671 16.293 16.293) with tilt (0 0 0)
  triclinic box = (0 0 0) to (15.9671 16.293 16.293) with tilt (0 0 0)
if "${dir} == 2" then    "change_box all y delta 0 ${delta} yz delta ${deltayz} remap units box"
if "${dir} == 3" then    "change_box all z delta 0 ${delta} remap units box"
if "${dir} == 4" then    "change_box all yz delta ${delta} remap units box"
if "${dir} == 5" then    "change_box all xz delta ${delta} remap units box"
if "${dir} == 6" then    "change_box all xy delta ${delta} remap units box"

# Run MD

run ${nequil}
run 1000
Neighbor list info ...
  update every 1 steps, delay 0 steps, check yes
  max neighbors/atom: 2000, page size: 100000
  master list distance cutoff = 4.77118
  ghost atom cutoff = 4.77118
  1 neighbor lists, perpetual/occasional/extra = 1 0 0
  (1) pair sw, perpetual
      attributes: full, newton on
      pair build: full/nsq
      stencil: none
      bin: none
Per MPI rank memory allocation (min/avg/max) = 2.678 | 2.818 | 3.052 Mbytes
Step Temp PotEng Press f_avp[1] f_avp[2] f_avp[3] f_avp[4] f_avp[5] f_avp[6] 
       0    1947.9897   -878.46031    36115.234            0            0            0            0            0            0 
     100    1897.8342   -873.66582    31910.298    42818.589    32119.659    35569.437    2354.7954    1494.0714   -656.48861 
     200    2028.7089   -874.81377    36573.669    42133.025    33079.825    34877.904    3424.3099    6317.2634    185.45866 
     300    2034.8824   -874.86545    35462.675    40937.821    35090.151    33746.445     1460.196   -3424.0781   -3.0485089 
     400    1932.2719   -881.24777     40183.04    44119.941    35871.097    35808.533   -3570.2031    3533.7296    682.46296 
     500    2140.9951    -877.4267    38981.531    46619.994    33434.326    35755.958    350.63891     772.8337     349.3393 
     600     2058.083    -877.9807     36368.43    42254.806    34546.715    33389.559    2676.2703     1168.614   -1696.9414 
     700    2035.9003   -874.59301    36821.893    47435.636    34381.279    35481.375    4104.3671    5113.7736   -1198.4587 
     800    1912.1753   -879.92925    37179.798    44216.103    34647.943    36070.072    2071.3686    5762.8694   -279.32472 
     900    1943.7059   -872.60358     37031.46    42727.411     34302.52     35488.03   -2597.1451   -1488.7445   -857.42334 
    1000      1880.51   -874.74198    36299.456    44389.386     35711.15     33642.77    1510.3686     4482.791    2824.8014 
Loop time of 0.150138 on 8 procs for 1000 steps with 216 atoms

Performance: 575.472 ns/day, 0.042 hours/ns, 6660.560 timesteps/s
100.0% CPU use with 8 MPI tasks x no OpenMP threads

MPI task timing breakdown:
Section |  min time  |  avg time  |  max time  |%varavg| %total
---------------------------------------------------------------
Pair    | 0.095133   | 0.10081    | 0.10521    |   1.2 | 67.15
Neigh   | 0.0011162  | 0.0011887  | 0.0012569  |   0.1 |  0.79
Comm    | 0.037112   | 0.041507   | 0.047063   |   1.9 | 27.65
Output  | 0.0002054  | 0.00021246 | 0.00024426 |   0.0 |  0.14
Modify  | 0.0026774  | 0.0027463  | 0.0028389  |   0.1 |  1.83
Other   |            | 0.00367    |            |       |  2.44

Nlocal:    27 ave 31 max 25 min
Histogram: 3 0 0 2 0 2 0 0 0 1
Nghost:    253.5 ave 257 max 249 min
Histogram: 1 0 0 0 0 3 2 1 0 1
Neighs:    0 ave 0 max 0 min
Histogram: 8 0 0 0 0 0 0 0 0 0
FullNghs:  709.5 ave 812 max 653 min
Histogram: 3 0 0 1 1 2 0 0 0 1

Total # of neighbors = 5676
Ave neighs/atom = 26.2778
Neighbor list builds = 32
Dangerous builds = 0
include potential.mod
# NOTE: This script can be modified for different pair styles
# See in.elastic for more info.

reset_timestep 0

# Choose potential
pair_style	sw
pair_coeff * * Si.sw Si
Reading potential file Si.sw with DATE: 2007-06-11

# Setup neighbor style
neighbor 1.0 nsq
neigh_modify once no every 1 delay 0 check yes

# Setup output

fix avp all ave/time  ${nevery} ${nrepeat} ${nfreq} c_thermo_press mode vector
fix avp all ave/time  10 ${nrepeat} ${nfreq} c_thermo_press mode vector
fix avp all ave/time  10 10 ${nfreq} c_thermo_press mode vector
fix avp all ave/time  10 10 100 c_thermo_press mode vector
thermo		${nthermo}
thermo		100
thermo_style custom step temp pe press f_avp[1] f_avp[2] f_avp[3] f_avp[4] f_avp[5] f_avp[6]
WARNING: New thermo_style command, previous thermo_modify settings will be lost (../output.cpp:705)
thermo_modify norm no

# Setup MD

timestep ${timestep}
timestep 0.001
fix 4 all nve
if "${thermostat} == 1" then    "fix 5 all langevin ${temp} ${temp} ${tdamp} ${seed}"
fix 5 all langevin ${temp} ${temp} ${tdamp} ${seed}
fix 5 all langevin 2000 ${temp} ${tdamp} ${seed}
fix 5 all langevin 2000 2000 ${tdamp} ${seed}
fix 5 all langevin 2000 2000 0.01 ${seed}
fix 5 all langevin 2000 2000 0.01 123457


run ${nrun}
run 300
Per MPI rank memory allocation (min/avg/max) = 2.678 | 2.927 | 3.052 Mbytes
Step Temp PotEng Press f_avp[1] f_avp[2] f_avp[3] f_avp[4] f_avp[5] f_avp[6] 
       0      1880.51   -874.74198    36299.456            0            0            0            0            0            0 
     100    1930.0872   -873.19059    35360.656    40504.849    34088.685    34077.509   -309.28312   -5106.0185    1430.2773 
     200    1968.5138    -873.2394    37840.144    43564.136    33235.873      31906.4    2648.3836     5155.422   -752.46013 
     300    2125.7499   -873.71386    38023.977    43329.332    33608.746    33299.545    1467.8999    5541.0472    198.45921 
Loop time of 0.0470132 on 8 procs for 300 steps with 216 atoms

Performance: 551.334 ns/day, 0.044 hours/ns, 6381.182 timesteps/s
100.0% CPU use with 8 MPI tasks x no OpenMP threads

MPI task timing breakdown:
Section |  min time  |  avg time  |  max time  |%varavg| %total
---------------------------------------------------------------
Pair    | 0.026443   | 0.032213   | 0.034999   |   1.6 | 68.52
Neigh   | 0.0003267  | 0.00035841 | 0.00038307 |   0.0 |  0.76
Comm    | 0.0095604  | 0.01234    | 0.018055   |   2.6 | 26.25
Output  | 6.478e-05  | 6.8774e-05 | 7.9653e-05 |   0.0 |  0.15
Modify  | 0.0008229  | 0.00087011 | 0.00091617 |   0.0 |  1.85
Other   |            | 0.001163   |            |       |  2.47

Nlocal:    27 ave 29 max 25 min
Histogram: 1 0 2 0 0 2 0 2 0 1
Nghost:    252.5 ave 255 max 250 min
Histogram: 2 0 0 0 0 0 5 0 0 1
Neighs:    0 ave 0 max 0 min
Histogram: 8 0 0 0 0 0 0 0 0 0
FullNghs:  712.75 ave 770 max 658 min
Histogram: 1 1 1 0 1 1 1 1 0 1

Total # of neighbors = 5702
Ave neighs/atom = 26.3981
Neighbor list builds = 9
Dangerous builds = 0

# Obtain new stress tensor

variable pxx1 equal f_avp[1]
variable pyy1 equal f_avp[2]
variable pzz1 equal f_avp[3]
variable pxy1 equal f_avp[4]
variable pxz1 equal f_avp[5]
variable pyz1 equal f_avp[6]

# Compute elastic constant from pressure tensor

variable C1neg equal ${d1}
variable C1neg equal 134.214011470878
variable C2neg equal ${d2}
variable C2neg equal 85.356487582575
variable C3neg equal ${d3}
variable C3neg equal 72.370267915816
variable C4neg equal ${d4}
variable C4neg equal -13.9901453919708
variable C5neg equal ${d5}
variable C5neg equal 35.596369143544
variable C6neg equal ${d6}
variable C6neg equal 12.4323976984564

# Reset box and simulation parameters

clear
box tilt large
read_restart restart.equil
  restoring atom style atomic from restart
  triclinic box = (0 0 0) to (16.293 16.293 16.293) with tilt (0 0 0)
  2 by 2 by 2 MPI processor grid
  pair style sw stores no restart info
  216 atoms
include potential.mod
# NOTE: This script can be modified for different pair styles
# See in.elastic for more info.

reset_timestep 0

# Choose potential
pair_style	sw
pair_coeff * * Si.sw Si
Reading potential file Si.sw with DATE: 2007-06-11

# Setup neighbor style
neighbor 1.0 nsq
neigh_modify once no every 1 delay 0 check yes

# Setup output

fix avp all ave/time  ${nevery} ${nrepeat} ${nfreq} c_thermo_press mode vector
fix avp all ave/time  10 ${nrepeat} ${nfreq} c_thermo_press mode vector
fix avp all ave/time  10 10 ${nfreq} c_thermo_press mode vector
fix avp all ave/time  10 10 100 c_thermo_press mode vector
thermo		${nthermo}
thermo		100
thermo_style custom step temp pe press f_avp[1] f_avp[2] f_avp[3] f_avp[4] f_avp[5] f_avp[6]
thermo_modify norm no

# Setup MD

timestep ${timestep}
timestep 0.001
fix 4 all nve
if "${thermostat} == 1" then    "fix 5 all langevin ${temp} ${temp} ${tdamp} ${seed}"
fix 5 all langevin ${temp} ${temp} ${tdamp} ${seed}
fix 5 all langevin 2000 ${temp} ${tdamp} ${seed}
fix 5 all langevin 2000 2000 ${tdamp} ${seed}
fix 5 all langevin 2000 2000 0.01 ${seed}
fix 5 all langevin 2000 2000 0.01 123457



# Positive deformation

variable delta equal ${up}*${len0}
variable delta equal 0.02*${len0}
variable delta equal 0.02*16.293
variable deltaxy equal ${up}*xy
variable deltaxy equal 0.02*xy
variable deltaxz equal ${up}*xz
variable deltaxz equal 0.02*xz
variable deltayz equal ${up}*yz
variable deltayz equal 0.02*yz
if "${dir} == 1" then    "change_box all x delta 0 ${delta} xy delta ${deltaxy} xz delta ${deltaxz} remap units box"
change_box all x delta 0 ${delta} xy delta ${deltaxy} xz delta ${deltaxz} remap units box
change_box all x delta 0 0.32586 xy delta ${deltaxy} xz delta ${deltaxz} remap units box
change_box all x delta 0 0.32586 xy delta 0 xz delta ${deltaxz} remap units box
change_box all x delta 0 0.32586 xy delta 0 xz delta 0 remap units box
  triclinic box = (0 0 0) to (16.6189 16.293 16.293) with tilt (0 0 0)
  triclinic box = (0 0 0) to (16.6189 16.293 16.293) with tilt (0 0 0)
  triclinic box = (0 0 0) to (16.6189 16.293 16.293) with tilt (0 0 0)
if "${dir} == 2" then    "change_box all y delta 0 ${delta} yz delta ${deltayz} remap units box"
if "${dir} == 3" then    "change_box all z delta 0 ${delta} remap units box"
if "${dir} == 4" then    "change_box all yz delta ${delta} remap units box"
if "${dir} == 5" then    "change_box all xz delta ${delta} remap units box"
if "${dir} == 6" then    "change_box all xy delta ${delta} remap units box"

# Run MD

run ${nequil}
run 1000
Neighbor list info ...
  update every 1 steps, delay 0 steps, check yes
  max neighbors/atom: 2000, page size: 100000
  master list distance cutoff = 4.77118
  ghost atom cutoff = 4.77118
  1 neighbor lists, perpetual/occasional/extra = 1 0 0
  (1) pair sw, perpetual
      attributes: full, newton on
      pair build: full/nsq
      stencil: none
      bin: none
Per MPI rank memory allocation (min/avg/max) = 2.678 | 2.818 | 3.052 Mbytes
Step Temp PotEng Press f_avp[1] f_avp[2] f_avp[3] f_avp[4] f_avp[5] f_avp[6] 
       0    1947.9897   -878.61176   -4622.6604            0            0            0            0            0            0 
     100    1993.9391   -873.43214   -4265.7538   -9741.6484   -649.61357    2948.9683    152.94415   -534.97756   -1046.5572 
     200    2143.8956   -876.03687   -3554.7329   -8158.9519   -726.95043    -1891.944   -1679.0304   -1737.1179   -2529.6392 
     300    1935.0705   -871.25849   -2334.4677   -8264.5452    2579.0693    2042.8667   -2840.7878   -4454.7775    11.374853 
     400    2089.0312   -870.14228   -1390.1093   -10070.778     1929.349    605.05696   -3704.4479   -2472.5282    4464.6656 
     500    2079.2289   -868.24361   -1359.4289   -9231.3697    2428.6046    2635.7359    2408.6034    3188.0408     1680.466 
     600    1924.2408   -872.99374   -2842.3354   -8880.8072    6.0259531    1397.9707    7379.9274     2738.514   -2125.3452 
     700     2127.859   -871.97999   -3445.8641   -7952.9105    459.72125    3598.4748    1507.1425   -418.10882    4785.4206 
     800    1918.6584   -879.06879   -2518.4432   -9055.3792    1898.1068    1778.1513   -2765.7359    1076.8801    3514.2024 
     900    1943.9513   -875.33444    -1495.415   -10418.656    1974.4623     1112.391    319.24869   -884.27732   -619.29031 
    1000    1762.0076   -870.74338   -2089.2863   -7040.0886    3111.4944    3568.2701    1544.6819   -2804.1572    2249.0977 
Loop time of 0.137612 on 8 procs for 1000 steps with 216 atoms

Performance: 627.851 ns/day, 0.038 hours/ns, 7266.795 timesteps/s
100.0% CPU use with 8 MPI tasks x no OpenMP threads

MPI task timing breakdown:
Section |  min time  |  avg time  |  max time  |%varavg| %total
---------------------------------------------------------------
Pair    | 0.075795   | 0.086315   | 0.095405   |   2.5 | 62.72
Neigh   | 0.0011938  | 0.0013032  | 0.001441   |   0.3 |  0.95
Comm    | 0.034061   | 0.042932   | 0.053439   |   3.5 | 31.20
Output  | 0.00021663 | 0.00022656 | 0.00026217 |   0.0 |  0.16
Modify  | 0.0027879  | 0.0029282  | 0.0030322  |   0.2 |  2.13
Other   |            | 0.003907   |            |       |  2.84

Nlocal:    27 ave 30 max 24 min
Histogram: 2 0 0 1 0 2 0 0 2 1
Nghost:    251.75 ave 255 max 249 min
Histogram: 1 2 0 1 0 0 3 0 0 1
Neighs:    0 ave 0 max 0 min
Histogram: 8 0 0 0 0 0 0 0 0 0
FullNghs:  696.25 ave 759 max 610 min
Histogram: 1 1 0 1 0 1 1 0 0 3

Total # of neighbors = 5570
Ave neighs/atom = 25.787
Neighbor list builds = 33
Dangerous builds = 0
include potential.mod
# NOTE: This script can be modified for different pair styles
# See in.elastic for more info.

reset_timestep 0

# Choose potential
pair_style	sw
pair_coeff * * Si.sw Si
Reading potential file Si.sw with DATE: 2007-06-11

# Setup neighbor style
neighbor 1.0 nsq
neigh_modify once no every 1 delay 0 check yes

# Setup output

fix avp all ave/time  ${nevery} ${nrepeat} ${nfreq} c_thermo_press mode vector
fix avp all ave/time  10 ${nrepeat} ${nfreq} c_thermo_press mode vector
fix avp all ave/time  10 10 ${nfreq} c_thermo_press mode vector
fix avp all ave/time  10 10 100 c_thermo_press mode vector
thermo		${nthermo}
thermo		100
thermo_style custom step temp pe press f_avp[1] f_avp[2] f_avp[3] f_avp[4] f_avp[5] f_avp[6]
WARNING: New thermo_style command, previous thermo_modify settings will be lost (../output.cpp:705)
thermo_modify norm no

# Setup MD

timestep ${timestep}
timestep 0.001
fix 4 all nve
if "${thermostat} == 1" then    "fix 5 all langevin ${temp} ${temp} ${tdamp} ${seed}"
fix 5 all langevin ${temp} ${temp} ${tdamp} ${seed}
fix 5 all langevin 2000 ${temp} ${tdamp} ${seed}
fix 5 all langevin 2000 2000 ${tdamp} ${seed}
fix 5 all langevin 2000 2000 0.01 ${seed}
fix 5 all langevin 2000 2000 0.01 123457


run ${nrun}
run 300
Per MPI rank memory allocation (min/avg/max) = 2.678 | 2.943 | 3.052 Mbytes
Step Temp PotEng Press f_avp[1] f_avp[2] f_avp[3] f_avp[4] f_avp[5] f_avp[6] 
       0    1762.0076   -870.74338   -2089.2863            0            0            0            0            0            0 
     100    1858.0228   -865.87142   -3408.9143   -6668.7743   -1458.3899    3007.4784    -17.27871   -3577.6702    856.25074 
     200    1998.6541   -873.12739   -3347.1022   -9922.5353    230.37962    1595.9977    2547.7962    9211.4411    3029.9703 
     300    2024.7183   -870.29198   -2510.4509    -9997.934     2256.449    2603.6411    3018.7747   -1928.0751   -1251.9506 
Loop time of 0.0394361 on 8 procs for 300 steps with 216 atoms

Performance: 657.266 ns/day, 0.037 hours/ns, 7607.247 timesteps/s
100.0% CPU use with 8 MPI tasks x no OpenMP threads

MPI task timing breakdown:
Section |  min time  |  avg time  |  max time  |%varavg| %total
---------------------------------------------------------------
Pair    | 0.022943   | 0.025152   | 0.02751    |   1.0 | 63.78
Neigh   | 0.00032702 | 0.00034951 | 0.00036918 |   0.0 |  0.89
Comm    | 0.0096441  | 0.011951   | 0.014163   |   1.4 | 30.30
Output  | 6.2536e-05 | 6.5743e-05 | 7.4666e-05 |   0.0 |  0.17
Modify  | 0.00080547 | 0.0008334  | 0.0008569  |   0.0 |  2.11
Other   |            | 0.001084   |            |       |  2.75

Nlocal:    27 ave 30 max 25 min
Histogram: 1 0 3 0 2 0 0 0 1 1
Nghost:    253.5 ave 255 max 251 min
Histogram: 2 0 0 0 0 1 0 2 0 3
Neighs:    0 ave 0 max 0 min
Histogram: 8 0 0 0 0 0 0 0 0 0
FullNghs:  692.75 ave 757 max 627 min
Histogram: 1 0 1 2 0 2 0 0 0 2

Total # of neighbors = 5542
Ave neighs/atom = 25.6574
Neighbor list builds = 9
Dangerous builds = 0

# Obtain new stress tensor

variable tmp equal pe
variable e1 equal ${tmp}
variable e1 equal -870.291980636265
variable tmp equal press
variable p1 equal ${tmp}
variable p1 equal -2510.45092783784
variable tmp equal pxx
variable pxx1 equal ${tmp}
variable pxx1 equal -10928.6518682521
variable tmp equal pyy
variable pyy1 equal ${tmp}
variable pyy1 equal 3217.55520669103
variable tmp equal pzz
variable pzz1 equal ${tmp}
variable pzz1 equal 179.743878047541
variable tmp equal pxy
variable pxy1 equal ${tmp}
variable pxy1 equal 2112.9792240396
variable tmp equal pxz
variable pxz1 equal ${tmp}
variable pxz1 equal 3968.57955780248
variable tmp equal pyz
variable pyz1 equal ${tmp}
variable pyz1 equal 4789.4006225623

# Compute elastic constant from pressure tensor

variable C1pos equal ${d1}
variable C1pos equal 137.075905681676
variable C2pos equal ${d2}
variable C2pos equal 66.5994678115329
variable C3pos equal ${d3}
variable C3pos equal 93.2287352495098
variable C4pos equal ${d4}
variable C4pos equal -8.9645616699077
variable C5pos equal ${d5}
variable C5pos equal -27.7340307463311
variable C6pos equal ${d6}
variable C6pos equal -15.6577941708915

# Combine positive and negative

variable C1${dir} equal 0.5*(${C1neg}+${C1pos})
variable C11 equal 0.5*(${C1neg}+${C1pos})
variable C11 equal 0.5*(134.214011470878+${C1pos})
variable C11 equal 0.5*(134.214011470878+137.075905681676)
variable C2${dir} equal 0.5*(${C2neg}+${C2pos})
variable C21 equal 0.5*(${C2neg}+${C2pos})
variable C21 equal 0.5*(85.356487582575+${C2pos})
variable C21 equal 0.5*(85.356487582575+66.5994678115329)
variable C3${dir} equal 0.5*(${C3neg}+${C3pos})
variable C31 equal 0.5*(${C3neg}+${C3pos})
variable C31 equal 0.5*(72.370267915816+${C3pos})
variable C31 equal 0.5*(72.370267915816+93.2287352495098)
variable C4${dir} equal 0.5*(${C4neg}+${C4pos})
variable C41 equal 0.5*(${C4neg}+${C4pos})
variable C41 equal 0.5*(-13.9901453919708+${C4pos})
variable C41 equal 0.5*(-13.9901453919708+-8.9645616699077)
variable C5${dir} equal 0.5*(${C5neg}+${C5pos})
variable C51 equal 0.5*(${C5neg}+${C5pos})
variable C51 equal 0.5*(35.596369143544+${C5pos})
variable C51 equal 0.5*(35.596369143544+-27.7340307463311)
variable C6${dir} equal 0.5*(${C6neg}+${C6pos})
variable C61 equal 0.5*(${C6neg}+${C6pos})
variable C61 equal 0.5*(12.4323976984564+${C6pos})
variable C61 equal 0.5*(12.4323976984564+-15.6577941708915)

# Delete dir to make sure it is not reused

variable dir delete

# uyy Perturbation

variable dir equal 2
include displace.mod
# NOTE: This script should not need to be
# modified. See in.elastic for more info.
#
# Find which reference length to use

if "${dir} == 1" then    "variable len0 equal ${lx0}"
if "${dir} == 2" then    "variable len0 equal ${ly0}"
variable len0 equal ${ly0}
variable len0 equal 16.293
if "${dir} == 3" then    "variable len0 equal ${lz0}"
if "${dir} == 4" then    "variable len0 equal ${lz0}"
if "${dir} == 5" then    "variable len0 equal ${lz0}"
if "${dir} == 6" then    "variable len0 equal ${ly0}"

# Reset box and simulation parameters

clear
box tilt large
read_restart restart.equil
  restoring atom style atomic from restart
  triclinic box = (0 0 0) to (16.293 16.293 16.293) with tilt (0 0 0)
  2 by 2 by 2 MPI processor grid
  pair style sw stores no restart info
  216 atoms
include potential.mod
# NOTE: This script can be modified for different pair styles
# See in.elastic for more info.

reset_timestep 0

# Choose potential
pair_style	sw
pair_coeff * * Si.sw Si
Reading potential file Si.sw with DATE: 2007-06-11

# Setup neighbor style
neighbor 1.0 nsq
neigh_modify once no every 1 delay 0 check yes

# Setup output

fix avp all ave/time  ${nevery} ${nrepeat} ${nfreq} c_thermo_press mode vector
fix avp all ave/time  10 ${nrepeat} ${nfreq} c_thermo_press mode vector
fix avp all ave/time  10 10 ${nfreq} c_thermo_press mode vector
fix avp all ave/time  10 10 100 c_thermo_press mode vector
thermo		${nthermo}
thermo		100
thermo_style custom step temp pe press f_avp[1] f_avp[2] f_avp[3] f_avp[4] f_avp[5] f_avp[6]
thermo_modify norm no

# Setup MD

timestep ${timestep}
timestep 0.001
fix 4 all nve
if "${thermostat} == 1" then    "fix 5 all langevin ${temp} ${temp} ${tdamp} ${seed}"
fix 5 all langevin ${temp} ${temp} ${tdamp} ${seed}
fix 5 all langevin 2000 ${temp} ${tdamp} ${seed}
fix 5 all langevin 2000 2000 ${tdamp} ${seed}
fix 5 all langevin 2000 2000 0.01 ${seed}
fix 5 all langevin 2000 2000 0.01 123457



# Negative deformation

variable delta equal -${up}*${len0}
variable delta equal -0.02*${len0}
variable delta equal -0.02*16.293
variable deltaxy equal -${up}*xy
variable deltaxy equal -0.02*xy
variable deltaxz equal -${up}*xz
variable deltaxz equal -0.02*xz
variable deltayz equal -${up}*yz
variable deltayz equal -0.02*yz
if "${dir} == 1" then    "change_box all x delta 0 ${delta} xy delta ${deltaxy} xz delta ${deltaxz} remap units box"
if "${dir} == 2" then    "change_box all y delta 0 ${delta} yz delta ${deltayz} remap units box"
change_box all y delta 0 ${delta} yz delta ${deltayz} remap units box
change_box all y delta 0 -0.32586 yz delta ${deltayz} remap units box
change_box all y delta 0 -0.32586 yz delta -0 remap units box
  triclinic box = (0 0 0) to (16.293 15.9671 16.293) with tilt (0 0 0)
  triclinic box = (0 0 0) to (16.293 15.9671 16.293) with tilt (0 0 0)
if "${dir} == 3" then    "change_box all z delta 0 ${delta} remap units box"
if "${dir} == 4" then    "change_box all yz delta ${delta} remap units box"
if "${dir} == 5" then    "change_box all xz delta ${delta} remap units box"
if "${dir} == 6" then    "change_box all xy delta ${delta} remap units box"

# Run MD

run ${nequil}
run 1000
Neighbor list info ...
  update every 1 steps, delay 0 steps, check yes
  max neighbors/atom: 2000, page size: 100000
  master list distance cutoff = 4.77118
  ghost atom cutoff = 4.77118
  1 neighbor lists, perpetual/occasional/extra = 1 0 0
  (1) pair sw, perpetual
      attributes: full, newton on
      pair build: full/nsq
      stencil: none
      bin: none
Per MPI rank memory allocation (min/avg/max) = 2.678 | 2.818 | 3.052 Mbytes
Step Temp PotEng Press f_avp[1] f_avp[2] f_avp[3] f_avp[4] f_avp[5] f_avp[6] 
       0    1947.9897   -878.36683    36024.551            0            0            0            0            0            0 
     100    2033.5295    -876.3422    32814.379    33331.702    41455.762    34682.148    2337.1675     1294.182   -3097.8828 
     200    2057.5721   -870.72099    37921.278    32169.072    43107.663     32805.74    87.716229   -71.776617   -1642.3599 
     300    2086.4604   -871.74991    35707.773    35109.855    45585.348    34004.271    254.19598      2240.49     5045.467 
     400      2027.51   -873.08981    35450.522    32833.846     43457.07    33655.767    850.79721   -651.71907    2312.6355 
     500    2059.9661   -877.00172    38366.927    34822.857    47287.303    36148.916   -5641.2233   -2401.0129    4256.3309 
     600    2091.8718   -874.33361     39597.02    33163.305    44627.737    34177.594    1175.4153    2412.6736   -3847.8366 
     700    1937.4037    -873.6456    38362.199     33455.99    46106.437    36153.174    3682.7068   -77.883753   -76.836207 
     800    2065.4575   -874.74168    35708.783    32436.547    44335.374    32960.263    1350.6423    2078.5623    1021.3266 
     900    1976.0646    -878.1339    37553.382    32039.016    42268.087    33119.819   -1584.5814      5234.65    4736.6582 
    1000    1963.1093   -872.88844    35618.637    36606.662    44719.871    35351.428    4965.6593    986.26014   -1443.2642 
Loop time of 0.159328 on 8 procs for 1000 steps with 216 atoms

Performance: 542.277 ns/day, 0.044 hours/ns, 6276.357 timesteps/s
100.0% CPU use with 8 MPI tasks x no OpenMP threads

MPI task timing breakdown:
Section |  min time  |  avg time  |  max time  |%varavg| %total
---------------------------------------------------------------
Pair    | 0.10194    | 0.10578    | 0.11027    |   0.9 | 66.39
Neigh   | 0.0011951  | 0.0012428  | 0.0012792  |   0.1 |  0.78
Comm    | 0.041201   | 0.04543    | 0.049101   |   1.2 | 28.51
Output  | 0.00021571 | 0.00022324 | 0.0002497  |   0.0 |  0.14
Modify  | 0.0028104  | 0.0028408  | 0.0028932  |   0.0 |  1.78
Other   |            | 0.003807   |            |       |  2.39

Nlocal:    27 ave 29 max 25 min
Histogram: 2 0 1 0 0 2 0 1 0 2
Nghost:    253 ave 254 max 251 min
Histogram: 1 0 0 2 0 0 1 0 0 4
Neighs:    0 ave 0 max 0 min
Histogram: 8 0 0 0 0 0 0 0 0 0
FullNghs:  708.5 ave 763 max 655 min
Histogram: 1 1 1 0 2 0 0 1 0 2

Total # of neighbors = 5668
Ave neighs/atom = 26.2407
Neighbor list builds = 32
Dangerous builds = 0
include potential.mod
# NOTE: This script can be modified for different pair styles
# See in.elastic for more info.

reset_timestep 0

# Choose potential
pair_style	sw
pair_coeff * * Si.sw Si
Reading potential file Si.sw with DATE: 2007-06-11

# Setup neighbor style
neighbor 1.0 nsq
neigh_modify once no every 1 delay 0 check yes

# Setup output

fix avp all ave/time  ${nevery} ${nrepeat} ${nfreq} c_thermo_press mode vector
fix avp all ave/time  10 ${nrepeat} ${nfreq} c_thermo_press mode vector
fix avp all ave/time  10 10 ${nfreq} c_thermo_press mode vector
fix avp all ave/time  10 10 100 c_thermo_press mode vector
thermo		${nthermo}
thermo		100
thermo_style custom step temp pe press f_avp[1] f_avp[2] f_avp[3] f_avp[4] f_avp[5] f_avp[6]
WARNING: New thermo_style command, previous thermo_modify settings will be lost (../output.cpp:705)
thermo_modify norm no

# Setup MD

timestep ${timestep}
timestep 0.001
fix 4 all nve
if "${thermostat} == 1" then    "fix 5 all langevin ${temp} ${temp} ${tdamp} ${seed}"
fix 5 all langevin ${temp} ${temp} ${tdamp} ${seed}
fix 5 all langevin 2000 ${temp} ${tdamp} ${seed}
fix 5 all langevin 2000 2000 ${tdamp} ${seed}
fix 5 all langevin 2000 2000 0.01 ${seed}
fix 5 all langevin 2000 2000 0.01 123457


run ${nrun}
run 300
Per MPI rank memory allocation (min/avg/max) = 2.678 | 2.943 | 3.052 Mbytes
Step Temp PotEng Press f_avp[1] f_avp[2] f_avp[3] f_avp[4] f_avp[5] f_avp[6] 
       0    1963.1093   -872.88844    35618.637            0            0            0            0            0            0 
     100    2103.8928   -871.50079    37803.517    34403.797    43743.663    34626.251    5305.4825    3134.4292    934.52175 
     200    1899.4165   -875.49864    35676.193    33115.164    44332.868    35307.295   -1243.7173    1676.3683   -869.16531 
     300    2091.3092   -874.28961    38761.822    33289.665    45911.178    33420.934   -133.50522    3788.5929   -3158.8591 
Loop time of 0.0478142 on 8 procs for 300 steps with 216 atoms

Performance: 542.098 ns/day, 0.044 hours/ns, 6274.284 timesteps/s
100.0% CPU use with 8 MPI tasks x no OpenMP threads

MPI task timing breakdown:
Section |  min time  |  avg time  |  max time  |%varavg| %total
---------------------------------------------------------------
Pair    | 0.030302   | 0.03215    | 0.033806   |   0.7 | 67.24
Neigh   | 0.00038913 | 0.00040783 | 0.00041916 |   0.0 |  0.85
Comm    | 0.011478   | 0.013142   | 0.014986   |   1.1 | 27.48
Output  | 6.617e-05  | 6.9635e-05 | 8.0956e-05 |   0.0 |  0.15
Modify  | 0.0008395  | 0.0008779  | 0.0009068  |   0.0 |  1.84
Other   |            | 0.001168   |            |       |  2.44

Nlocal:    27 ave 30 max 25 min
Histogram: 1 0 2 0 3 0 1 0 0 1
Nghost:    251.875 ave 254 max 247 min
Histogram: 1 0 0 0 1 0 0 1 4 1
Neighs:    0 ave 0 max 0 min
Histogram: 8 0 0 0 0 0 0 0 0 0
FullNghs:  713.5 ave 790 max 668 min
Histogram: 1 2 1 1 1 0 1 0 0 1

Total # of neighbors = 5708
Ave neighs/atom = 26.4259
Neighbor list builds = 10
Dangerous builds = 0

# Obtain new stress tensor

variable pxx1 equal f_avp[1]
variable pyy1 equal f_avp[2]
variable pzz1 equal f_avp[3]
variable pxy1 equal f_avp[4]
variable pxz1 equal f_avp[5]
variable pyz1 equal f_avp[6]

# Compute elastic constant from pressure tensor

variable C1neg equal ${d1}
variable C1neg equal 84.0156778584505
variable C2neg equal ${d2}
variable C2neg equal 146.868645377799
variable C3neg equal ${d3}
variable C3neg equal 72.9772141553955
variable C4neg equal ${d4}
variable C4neg equal -30.7767367322542
variable C5neg equal ${d5}
variable C5neg equal 26.8340973071185
variable C6neg equal ${d6}
variable C6neg equal 4.42537194729929

# Reset box and simulation parameters

clear
box tilt large
read_restart restart.equil
  restoring atom style atomic from restart
  triclinic box = (0 0 0) to (16.293 16.293 16.293) with tilt (0 0 0)
  2 by 2 by 2 MPI processor grid
  pair style sw stores no restart info
  216 atoms
include potential.mod
# NOTE: This script can be modified for different pair styles
# See in.elastic for more info.

reset_timestep 0

# Choose potential
pair_style	sw
pair_coeff * * Si.sw Si
Reading potential file Si.sw with DATE: 2007-06-11

# Setup neighbor style
neighbor 1.0 nsq
neigh_modify once no every 1 delay 0 check yes

# Setup output

fix avp all ave/time  ${nevery} ${nrepeat} ${nfreq} c_thermo_press mode vector
fix avp all ave/time  10 ${nrepeat} ${nfreq} c_thermo_press mode vector
fix avp all ave/time  10 10 ${nfreq} c_thermo_press mode vector
fix avp all ave/time  10 10 100 c_thermo_press mode vector
thermo		${nthermo}
thermo		100
thermo_style custom step temp pe press f_avp[1] f_avp[2] f_avp[3] f_avp[4] f_avp[5] f_avp[6]
thermo_modify norm no

# Setup MD

timestep ${timestep}
timestep 0.001
fix 4 all nve
if "${thermostat} == 1" then    "fix 5 all langevin ${temp} ${temp} ${tdamp} ${seed}"
fix 5 all langevin ${temp} ${temp} ${tdamp} ${seed}
fix 5 all langevin 2000 ${temp} ${tdamp} ${seed}
fix 5 all langevin 2000 2000 ${tdamp} ${seed}
fix 5 all langevin 2000 2000 0.01 ${seed}
fix 5 all langevin 2000 2000 0.01 123457



# Positive deformation

variable delta equal ${up}*${len0}
variable delta equal 0.02*${len0}
variable delta equal 0.02*16.293
variable deltaxy equal ${up}*xy
variable deltaxy equal 0.02*xy
variable deltaxz equal ${up}*xz
variable deltaxz equal 0.02*xz
variable deltayz equal ${up}*yz
variable deltayz equal 0.02*yz
if "${dir} == 1" then    "change_box all x delta 0 ${delta} xy delta ${deltaxy} xz delta ${deltaxz} remap units box"
if "${dir} == 2" then    "change_box all y delta 0 ${delta} yz delta ${deltayz} remap units box"
change_box all y delta 0 ${delta} yz delta ${deltayz} remap units box
change_box all y delta 0 0.32586 yz delta ${deltayz} remap units box
change_box all y delta 0 0.32586 yz delta 0 remap units box
  triclinic box = (0 0 0) to (16.293 16.6189 16.293) with tilt (0 0 0)
  triclinic box = (0 0 0) to (16.293 16.6189 16.293) with tilt (0 0 0)
if "${dir} == 3" then    "change_box all z delta 0 ${delta} remap units box"
if "${dir} == 4" then    "change_box all yz delta ${delta} remap units box"
if "${dir} == 5" then    "change_box all xz delta ${delta} remap units box"
if "${dir} == 6" then    "change_box all xy delta ${delta} remap units box"

# Run MD

run ${nequil}
run 1000
Neighbor list info ...
  update every 1 steps, delay 0 steps, check yes
  max neighbors/atom: 2000, page size: 100000
  master list distance cutoff = 4.77118
  ghost atom cutoff = 4.77118
  1 neighbor lists, perpetual/occasional/extra = 1 0 0
  (1) pair sw, perpetual
      attributes: full, newton on
      pair build: full/nsq
      stencil: none
      bin: none
Per MPI rank memory allocation (min/avg/max) = 2.678 | 2.818 | 3.052 Mbytes
Step Temp PotEng Press f_avp[1] f_avp[2] f_avp[3] f_avp[4] f_avp[5] f_avp[6] 
       0    1947.9897    -878.7135   -4665.1686            0            0            0            0            0            0 
     100    2138.3127   -867.18924   -2959.0639    1732.0904   -10873.146    3278.3134   -1200.3552     1598.679   -317.46147 
     200    2020.7279   -872.75941   -5147.8016   -2302.1598   -11862.079   -1730.7874   -4032.7968   -368.27854     3406.152 
     300     1971.464   -867.73437    1156.6104    2110.5943   -7788.3409    2763.2789   -2738.7799   -1893.3749   -562.59963 
     400    1977.1854   -875.22951    -1731.173    2721.2056   -8537.9764    2140.4819    112.74545   -2588.2071    4788.3162 
     500    2145.3329   -876.03135   -1395.5165    2851.9752   -6777.6458    2340.4844    118.94032   -3.9278782    1753.5936 
     600    2044.3181   -877.47223   -1496.2672    1673.6287   -7605.2419    208.67636    434.00778    876.59605   -2148.4983 
     700    1955.5186   -876.21225   -546.99563    2448.9458   -6333.4434    1552.5766    3758.7332    7.0148843   -636.50962 
     800    2018.1239   -876.62264   -3438.2472    535.10178    -8552.266    632.99411    -718.9704    180.99371    3948.7891 
     900    1865.9155   -877.63462    -5491.167   -2062.0537   -9001.3179   -286.60557   -312.25831    2359.8203   -1237.1501 
    1000    2270.9187   -874.13562    316.79937    1006.4105   -9295.9575    3271.3826    5015.2378   -4582.0107    1564.8506 
Loop time of 0.129197 on 8 procs for 1000 steps with 216 atoms

Performance: 668.745 ns/day, 0.036 hours/ns, 7740.101 timesteps/s
100.0% CPU use with 8 MPI tasks x no OpenMP threads

MPI task timing breakdown:
Section |  min time  |  avg time  |  max time  |%varavg| %total
---------------------------------------------------------------
Pair    | 0.073201   | 0.081499   | 0.089711   |   1.8 | 63.08
Neigh   | 0.0010925  | 0.0011938  | 0.001257   |   0.2 |  0.92
Comm    | 0.031688   | 0.039918   | 0.048237   |   2.5 | 30.90
Output  | 0.00020411 | 0.00021419 | 0.00026343 |   0.0 |  0.17
Modify  | 0.0026969  | 0.0027595  | 0.0028509  |   0.1 |  2.14
Other   |            | 0.003613   |            |       |  2.80

Nlocal:    27 ave 29 max 25 min
Histogram: 1 0 1 0 0 4 0 1 0 1
Nghost:    252.5 ave 255 max 249 min
Histogram: 1 0 0 1 0 2 2 0 0 2
Neighs:    0 ave 0 max 0 min
Histogram: 8 0 0 0 0 0 0 0 0 0
FullNghs:  694.25 ave 753 max 650 min
Histogram: 2 0 0 2 2 0 1 0 0 1

Total # of neighbors = 5554
Ave neighs/atom = 25.713
Neighbor list builds = 32
Dangerous builds = 0
include potential.mod
# NOTE: This script can be modified for different pair styles
# See in.elastic for more info.

reset_timestep 0

# Choose potential
pair_style	sw
pair_coeff * * Si.sw Si
Reading potential file Si.sw with DATE: 2007-06-11

# Setup neighbor style
neighbor 1.0 nsq
neigh_modify once no every 1 delay 0 check yes

# Setup output

fix avp all ave/time  ${nevery} ${nrepeat} ${nfreq} c_thermo_press mode vector
fix avp all ave/time  10 ${nrepeat} ${nfreq} c_thermo_press mode vector
fix avp all ave/time  10 10 ${nfreq} c_thermo_press mode vector
fix avp all ave/time  10 10 100 c_thermo_press mode vector
thermo		${nthermo}
thermo		100
thermo_style custom step temp pe press f_avp[1] f_avp[2] f_avp[3] f_avp[4] f_avp[5] f_avp[6]
WARNING: New thermo_style command, previous thermo_modify settings will be lost (../output.cpp:705)
thermo_modify norm no

# Setup MD

timestep ${timestep}
timestep 0.001
fix 4 all nve
if "${thermostat} == 1" then    "fix 5 all langevin ${temp} ${temp} ${tdamp} ${seed}"
fix 5 all langevin ${temp} ${temp} ${tdamp} ${seed}
fix 5 all langevin 2000 ${temp} ${tdamp} ${seed}
fix 5 all langevin 2000 2000 ${tdamp} ${seed}
fix 5 all langevin 2000 2000 0.01 ${seed}
fix 5 all langevin 2000 2000 0.01 123457


run ${nrun}
run 300
Per MPI rank memory allocation (min/avg/max) = 2.678 | 2.943 | 3.052 Mbytes
Step Temp PotEng Press f_avp[1] f_avp[2] f_avp[3] f_avp[4] f_avp[5] f_avp[6] 
       0    2270.9187   -874.13562    316.79937            0            0            0            0            0            0 
     100    1814.1877   -870.85447   -1088.9501    3029.9356   -8978.8799    3448.5807   -2088.6801   -921.92625   -5494.6638 
     200    2008.4894   -875.04125   -3842.5124   -2087.7195   -9310.0204   -668.58316    566.52253    1591.8303   -2118.0147 
     300    1924.8664   -868.01623   -4111.3324   -2410.5703   -9931.1344    3049.7845   -545.49941    3685.0765   -2852.1343 
Loop time of 0.0386297 on 8 procs for 300 steps with 216 atoms

Performance: 670.986 ns/day, 0.036 hours/ns, 7766.041 timesteps/s
99.9% CPU use with 8 MPI tasks x no OpenMP threads

MPI task timing breakdown:
Section |  min time  |  avg time  |  max time  |%varavg| %total
---------------------------------------------------------------
Pair    | 0.022566   | 0.024025   | 0.02829    |   1.1 | 62.19
Neigh   | 0.00030059 | 0.00031997 | 0.00035152 |   0.0 |  0.83
Comm    | 0.0076744  | 0.012018   | 0.013413   |   1.6 | 31.11
Output  | 6.3107e-05 | 6.7775e-05 | 7.8218e-05 |   0.0 |  0.18
Modify  | 0.00078551 | 0.00082612 | 0.00084852 |   0.0 |  2.14
Other   |            | 0.001373   |            |       |  3.56

Nlocal:    27 ave 30 max 23 min
Histogram: 1 0 1 0 1 2 0 1 0 2
Nghost:    252.25 ave 255 max 250 min
Histogram: 1 0 3 0 1 0 1 0 0 2
Neighs:    0 ave 0 max 0 min
Histogram: 8 0 0 0 0 0 0 0 0 0
FullNghs:  688.25 ave 772 max 588 min
Histogram: 1 0 1 1 1 1 1 0 0 2

Total # of neighbors = 5506
Ave neighs/atom = 25.4907
Neighbor list builds = 9
Dangerous builds = 0

# Obtain new stress tensor

variable tmp equal pe
variable e1 equal ${tmp}
variable e1 equal -868.01623427434
variable tmp equal press
variable p1 equal ${tmp}
variable p1 equal -4111.332372121
variable tmp equal pxx
variable pxx1 equal ${tmp}
variable pxx1 equal -2520.99529554923
variable tmp equal pyy
variable pyy1 equal ${tmp}
variable pyy1 equal -11222.066128746
variable tmp equal pzz
variable pzz1 equal ${tmp}
variable pzz1 equal 1409.06430793224
variable tmp equal pxy
variable pxy1 equal ${tmp}
variable pxy1 equal -2800.14982115374
variable tmp equal pxz
variable pxz1 equal ${tmp}
variable pxz1 equal 7784.82306954517
variable tmp equal pyz
variable pyz1 equal ${tmp}
variable pyz1 equal -5707.00934565033

# Compute elastic constant from pressure tensor

variable C1pos equal ${d1}
variable C1pos equal 95.0376228181611
variable C2pos equal ${d2}
variable C2pos equal 138.797574488718
variable C3pos equal ${d3}
variable C3pos equal 87.0821331000863
variable C4pos equal ${d4}
variable C4pos equal 43.5174881711555
variable C5pos equal ${d5}
variable C5pos equal -46.8152483050446
variable C6pos equal ${d6}
variable C6pos equal 8.90785105507515

# Combine positive and negative

variable C1${dir} equal 0.5*(${C1neg}+${C1pos})
variable C12 equal 0.5*(${C1neg}+${C1pos})
variable C12 equal 0.5*(84.0156778584505+${C1pos})
variable C12 equal 0.5*(84.0156778584505+95.0376228181611)
variable C2${dir} equal 0.5*(${C2neg}+${C2pos})
variable C22 equal 0.5*(${C2neg}+${C2pos})
variable C22 equal 0.5*(146.868645377799+${C2pos})
variable C22 equal 0.5*(146.868645377799+138.797574488718)
variable C3${dir} equal 0.5*(${C3neg}+${C3pos})
variable C32 equal 0.5*(${C3neg}+${C3pos})
variable C32 equal 0.5*(72.9772141553955+${C3pos})
variable C32 equal 0.5*(72.9772141553955+87.0821331000863)
variable C4${dir} equal 0.5*(${C4neg}+${C4pos})
variable C42 equal 0.5*(${C4neg}+${C4pos})
variable C42 equal 0.5*(-30.7767367322542+${C4pos})
variable C42 equal 0.5*(-30.7767367322542+43.5174881711555)
variable C5${dir} equal 0.5*(${C5neg}+${C5pos})
variable C52 equal 0.5*(${C5neg}+${C5pos})
variable C52 equal 0.5*(26.8340973071185+${C5pos})
variable C52 equal 0.5*(26.8340973071185+-46.8152483050446)
variable C6${dir} equal 0.5*(${C6neg}+${C6pos})
variable C62 equal 0.5*(${C6neg}+${C6pos})
variable C62 equal 0.5*(4.42537194729929+${C6pos})
variable C62 equal 0.5*(4.42537194729929+8.90785105507515)

# Delete dir to make sure it is not reused

variable dir delete

# uzz Perturbation

variable dir equal 3
include displace.mod
# NOTE: This script should not need to be
# modified. See in.elastic for more info.
#
# Find which reference length to use

if "${dir} == 1" then    "variable len0 equal ${lx0}"
if "${dir} == 2" then    "variable len0 equal ${ly0}"
if "${dir} == 3" then    "variable len0 equal ${lz0}"
variable len0 equal ${lz0}
variable len0 equal 16.293
if "${dir} == 4" then    "variable len0 equal ${lz0}"
if "${dir} == 5" then    "variable len0 equal ${lz0}"
if "${dir} == 6" then    "variable len0 equal ${ly0}"

# Reset box and simulation parameters

clear
box tilt large
read_restart restart.equil
  restoring atom style atomic from restart
  triclinic box = (0 0 0) to (16.293 16.293 16.293) with tilt (0 0 0)
  2 by 2 by 2 MPI processor grid
  pair style sw stores no restart info
  216 atoms
include potential.mod
# NOTE: This script can be modified for different pair styles
# See in.elastic for more info.

reset_timestep 0

# Choose potential
pair_style	sw
pair_coeff * * Si.sw Si
Reading potential file Si.sw with DATE: 2007-06-11

# Setup neighbor style
neighbor 1.0 nsq
neigh_modify once no every 1 delay 0 check yes

# Setup output

fix avp all ave/time  ${nevery} ${nrepeat} ${nfreq} c_thermo_press mode vector
fix avp all ave/time  10 ${nrepeat} ${nfreq} c_thermo_press mode vector
fix avp all ave/time  10 10 ${nfreq} c_thermo_press mode vector
fix avp all ave/time  10 10 100 c_thermo_press mode vector
thermo		${nthermo}
thermo		100
thermo_style custom step temp pe press f_avp[1] f_avp[2] f_avp[3] f_avp[4] f_avp[5] f_avp[6]
thermo_modify norm no

# Setup MD

timestep ${timestep}
timestep 0.001
fix 4 all nve
if "${thermostat} == 1" then    "fix 5 all langevin ${temp} ${temp} ${tdamp} ${seed}"
fix 5 all langevin ${temp} ${temp} ${tdamp} ${seed}
fix 5 all langevin 2000 ${temp} ${tdamp} ${seed}
fix 5 all langevin 2000 2000 ${tdamp} ${seed}
fix 5 all langevin 2000 2000 0.01 ${seed}
fix 5 all langevin 2000 2000 0.01 123457



# Negative deformation

variable delta equal -${up}*${len0}
variable delta equal -0.02*${len0}
variable delta equal -0.02*16.293
variable deltaxy equal -${up}*xy
variable deltaxy equal -0.02*xy
variable deltaxz equal -${up}*xz
variable deltaxz equal -0.02*xz
variable deltayz equal -${up}*yz
variable deltayz equal -0.02*yz
if "${dir} == 1" then    "change_box all x delta 0 ${delta} xy delta ${deltaxy} xz delta ${deltaxz} remap units box"
if "${dir} == 2" then    "change_box all y delta 0 ${delta} yz delta ${deltayz} remap units box"
if "${dir} == 3" then    "change_box all z delta 0 ${delta} remap units box"
change_box all z delta 0 ${delta} remap units box
change_box all z delta 0 -0.32586 remap units box
  triclinic box = (0 0 0) to (16.293 16.293 15.9671) with tilt (0 0 0)
if "${dir} == 4" then    "change_box all yz delta ${delta} remap units box"
if "${dir} == 5" then    "change_box all xz delta ${delta} remap units box"
if "${dir} == 6" then    "change_box all xy delta ${delta} remap units box"

# Run MD

run ${nequil}
run 1000
Neighbor list info ...
  update every 1 steps, delay 0 steps, check yes
  max neighbors/atom: 2000, page size: 100000
  master list distance cutoff = 4.77118
  ghost atom cutoff = 4.77118
  1 neighbor lists, perpetual/occasional/extra = 1 0 0
  (1) pair sw, perpetual
      attributes: full, newton on
      pair build: full/nsq
      stencil: none
      bin: none
Per MPI rank memory allocation (min/avg/max) = 2.678 | 2.818 | 3.052 Mbytes
Step Temp PotEng Press f_avp[1] f_avp[2] f_avp[3] f_avp[4] f_avp[5] f_avp[6] 
       0    1947.9897     -878.484      36265.9            0            0            0            0            0            0 
     100    1996.5454    -873.6808    34707.356    33732.497    31778.741    45735.572    188.49765   -667.89395   -1019.6848 
     200    2027.9809   -876.73957     39500.19    33946.135    34271.442    42913.565   -654.11299    1159.5466   -2522.4314 
     300    1933.9867   -874.73595    37470.158    34691.158    34158.721    43508.829    540.85121    828.38322   -2741.0964 
     400     1804.622   -879.16905     34037.79    33666.223    36437.779     44945.46     2783.633   -1799.5429    1647.1127 
     500    2035.8175   -875.61222     40187.47    33893.509    35794.288    46275.096   -3871.9802    2833.6414    10038.861 
     600    2054.0507   -878.38934    36404.604    33841.275    32421.717    45030.428   -3279.7277    2529.5668   -1660.0127 
     700    2065.8051   -878.73374    34625.226    31468.169    32008.434    43269.266   -2236.5115    258.54357     2800.177 
     800    1994.9682   -874.16061    36379.486    33244.077    33641.886    44205.871   -71.874697   -1878.0446   -1776.5163 
     900    2035.8356   -877.46497    37663.382     34975.82    32818.981    44338.089    2602.1117   -1883.7818   -3803.6415 
    1000    2139.5427     -879.134     40892.35      35137.9    34156.008    44959.129    504.22286   -3750.4582   -1977.0287 
Loop time of 0.163788 on 8 procs for 1000 steps with 216 atoms

Performance: 527.510 ns/day, 0.045 hours/ns, 6105.445 timesteps/s
100.0% CPU use with 8 MPI tasks x no OpenMP threads

MPI task timing breakdown:
Section |  min time  |  avg time  |  max time  |%varavg| %total
---------------------------------------------------------------
Pair    | 0.093334   | 0.10778    | 0.11711    |   2.0 | 65.81
Neigh   | 0.0011801  | 0.0012971  | 0.0013527  |   0.2 |  0.79
Comm    | 0.038117   | 0.047374   | 0.061669   |   3.0 | 28.92
Output  | 0.00021917 | 0.00023406 | 0.00026596 |   0.0 |  0.14
Modify  | 0.0027748  | 0.0029323  | 0.0030104  |   0.1 |  1.79
Other   |            | 0.004169   |            |       |  2.55

Nlocal:    27 ave 28 max 24 min
Histogram: 1 0 1 0 0 0 0 1 0 5
Nghost:    251.75 ave 255 max 249 min
Histogram: 1 2 0 1 0 1 1 0 1 1
Neighs:    0 ave 0 max 0 min
Histogram: 8 0 0 0 0 0 0 0 0 0
FullNghs:  721 ave 750 max 636 min
Histogram: 1 0 0 1 0 0 1 0 0 5

Total # of neighbors = 5768
Ave neighs/atom = 26.7037
Neighbor list builds = 32
Dangerous builds = 0
include potential.mod
# NOTE: This script can be modified for different pair styles
# See in.elastic for more info.

reset_timestep 0

# Choose potential
pair_style	sw
pair_coeff * * Si.sw Si
Reading potential file Si.sw with DATE: 2007-06-11

# Setup neighbor style
neighbor 1.0 nsq
neigh_modify once no every 1 delay 0 check yes

# Setup output

fix avp all ave/time  ${nevery} ${nrepeat} ${nfreq} c_thermo_press mode vector
fix avp all ave/time  10 ${nrepeat} ${nfreq} c_thermo_press mode vector
fix avp all ave/time  10 10 ${nfreq} c_thermo_press mode vector
fix avp all ave/time  10 10 100 c_thermo_press mode vector
thermo		${nthermo}
thermo		100
thermo_style custom step temp pe press f_avp[1] f_avp[2] f_avp[3] f_avp[4] f_avp[5] f_avp[6]
WARNING: New thermo_style command, previous thermo_modify settings will be lost (../output.cpp:705)
thermo_modify norm no

# Setup MD

timestep ${timestep}
timestep 0.001
fix 4 all nve
if "${thermostat} == 1" then    "fix 5 all langevin ${temp} ${temp} ${tdamp} ${seed}"
fix 5 all langevin ${temp} ${temp} ${tdamp} ${seed}
fix 5 all langevin 2000 ${temp} ${tdamp} ${seed}
fix 5 all langevin 2000 2000 ${tdamp} ${seed}
fix 5 all langevin 2000 2000 0.01 ${seed}
fix 5 all langevin 2000 2000 0.01 123457


run ${nrun}
run 300
Per MPI rank memory allocation (min/avg/max) = 2.678 | 2.943 | 3.052 Mbytes
Step Temp PotEng Press f_avp[1] f_avp[2] f_avp[3] f_avp[4] f_avp[5] f_avp[6] 
       0    2139.5427     -879.134     40892.35            0            0            0            0            0            0 
     100    1966.3418   -870.90183    41668.739    37265.582     35433.62    48088.807    1946.4812    1381.9659    2442.0362 
     200    2060.4311    -871.8442    39909.247    35409.137    35612.384    44142.075   -3070.3659    3220.4341   -6978.4353 
     300    1973.0643   -872.38335    36737.119    35480.454     34581.28      45213.8    688.68386    5678.6741   -2342.2345 
Loop time of 0.0485357 on 8 procs for 300 steps with 216 atoms

Performance: 534.040 ns/day, 0.045 hours/ns, 6181.023 timesteps/s
100.0% CPU use with 8 MPI tasks x no OpenMP threads

MPI task timing breakdown:
Section |  min time  |  avg time  |  max time  |%varavg| %total
---------------------------------------------------------------
Pair    | 0.030085   | 0.032935   | 0.037267   |   1.2 | 67.86
Neigh   | 0.00039851 | 0.00041253 | 0.00043249 |   0.0 |  0.85
Comm    | 0.0087788  | 0.013067   | 0.015947   |   1.9 | 26.92
Output  | 6.4993e-05 | 6.8906e-05 | 7.503e-05  |   0.0 |  0.14
Modify  | 0.0008494  | 0.00088562 | 0.0009143  |   0.0 |  1.82
Other   |            | 0.001167   |            |       |  2.40

Nlocal:    27 ave 30 max 24 min
Histogram: 1 1 0 2 0 1 0 0 2 1
Nghost:    254.5 ave 259 max 249 min
Histogram: 1 0 0 0 2 1 2 0 0 2
Neighs:    0 ave 0 max 0 min
Histogram: 8 0 0 0 0 0 0 0 0 0
FullNghs:  712.5 ave 794 max 636 min
Histogram: 1 1 1 1 1 0 0 1 1 1

Total # of neighbors = 5700
Ave neighs/atom = 26.3889
Neighbor list builds = 10
Dangerous builds = 0

# Obtain new stress tensor

variable pxx1 equal f_avp[1]
variable pyy1 equal f_avp[2]
variable pzz1 equal f_avp[3]
variable pxy1 equal f_avp[4]
variable pxz1 equal f_avp[5]
variable pyz1 equal f_avp[6]

# Compute elastic constant from pressure tensor

variable C1neg equal ${d1}
variable C1neg equal 94.969624870168
variable C2neg equal ${d2}
variable C2neg equal 90.21915495967
variable C3neg equal ${d3}
variable C3neg equal 131.941543247366
variable C4neg equal ${d4}
variable C4neg equal -26.6936137373349
variable C5neg equal ${d5}
variable C5neg equal 36.2845036127193
variable C6neg equal ${d6}
variable C6neg equal 8.53631737320858

# Reset box and simulation parameters

clear
box tilt large
read_restart restart.equil
  restoring atom style atomic from restart
  triclinic box = (0 0 0) to (16.293 16.293 16.293) with tilt (0 0 0)
  2 by 2 by 2 MPI processor grid
  pair style sw stores no restart info
  216 atoms
include potential.mod
# NOTE: This script can be modified for different pair styles
# See in.elastic for more info.

reset_timestep 0

# Choose potential
pair_style	sw
pair_coeff * * Si.sw Si
Reading potential file Si.sw with DATE: 2007-06-11

# Setup neighbor style
neighbor 1.0 nsq
neigh_modify once no every 1 delay 0 check yes

# Setup output

fix avp all ave/time  ${nevery} ${nrepeat} ${nfreq} c_thermo_press mode vector
fix avp all ave/time  10 ${nrepeat} ${nfreq} c_thermo_press mode vector
fix avp all ave/time  10 10 ${nfreq} c_thermo_press mode vector
fix avp all ave/time  10 10 100 c_thermo_press mode vector
thermo		${nthermo}
thermo		100
thermo_style custom step temp pe press f_avp[1] f_avp[2] f_avp[3] f_avp[4] f_avp[5] f_avp[6]
thermo_modify norm no

# Setup MD

timestep ${timestep}
timestep 0.001
fix 4 all nve
if "${thermostat} == 1" then    "fix 5 all langevin ${temp} ${temp} ${tdamp} ${seed}"
fix 5 all langevin ${temp} ${temp} ${tdamp} ${seed}
fix 5 all langevin 2000 ${temp} ${tdamp} ${seed}
fix 5 all langevin 2000 2000 ${tdamp} ${seed}
fix 5 all langevin 2000 2000 0.01 ${seed}
fix 5 all langevin 2000 2000 0.01 123457



# Positive deformation

variable delta equal ${up}*${len0}
variable delta equal 0.02*${len0}
variable delta equal 0.02*16.293
variable deltaxy equal ${up}*xy
variable deltaxy equal 0.02*xy
variable deltaxz equal ${up}*xz
variable deltaxz equal 0.02*xz
variable deltayz equal ${up}*yz
variable deltayz equal 0.02*yz
if "${dir} == 1" then    "change_box all x delta 0 ${delta} xy delta ${deltaxy} xz delta ${deltaxz} remap units box"
if "${dir} == 2" then    "change_box all y delta 0 ${delta} yz delta ${deltayz} remap units box"
if "${dir} == 3" then    "change_box all z delta 0 ${delta} remap units box"
change_box all z delta 0 ${delta} remap units box
change_box all z delta 0 0.32586 remap units box
  triclinic box = (0 0 0) to (16.293 16.293 16.6189) with tilt (0 0 0)
if "${dir} == 4" then    "change_box all yz delta ${delta} remap units box"
if "${dir} == 5" then    "change_box all xz delta ${delta} remap units box"
if "${dir} == 6" then    "change_box all xy delta ${delta} remap units box"

# Run MD

run ${nequil}
run 1000
Neighbor list info ...
  update every 1 steps, delay 0 steps, check yes
  max neighbors/atom: 2000, page size: 100000
  master list distance cutoff = 4.77118
  ghost atom cutoff = 4.77118
  1 neighbor lists, perpetual/occasional/extra = 1 0 0
  (1) pair sw, perpetual
      attributes: full, newton on
      pair build: full/nsq
      stencil: none
      bin: none
Per MPI rank memory allocation (min/avg/max) = 2.678 | 2.818 | 3.052 Mbytes
Step Temp PotEng Press f_avp[1] f_avp[2] f_avp[3] f_avp[4] f_avp[5] f_avp[6] 
       0    1947.9897   -878.57675   -4734.3129            0            0            0            0            0            0 
     100    1966.7881   -868.34712   -4581.5709    453.17415   -70.277585   -7531.6503    626.59393    2877.5797   -1042.6992 
     200    2262.9111   -869.56929   -2654.8942   -916.15035    330.36349   -9499.1667     1914.602    5511.5489   -1639.6441 
     300    1962.3945   -879.31438   -4261.8531    280.31562     523.6192   -8340.6729    2150.7893    2837.3661    4529.6417 
     400    1893.7245   -875.53841   -3836.2133   -146.66822    791.35517   -7669.6025    1840.1638    1086.8296   -159.99005 
     500    1903.0444   -866.54405   -965.19768    1819.1653    926.94646   -7862.4531    -2399.351    2366.4979    2539.1581 
     600    1880.9493   -873.38602     -1935.19    882.33717    2793.1264   -9400.2745   -1056.8051   -768.20235    3406.5058 
     700    2001.2757     -872.041    -642.5043     2194.565    781.71618    -9071.078   -4210.6157    1225.1955    2201.3682 
     800    1863.3797   -878.15833   -3292.8721    3134.3059    3186.6621   -9578.3345    3728.2372     556.8416    1363.0113 
     900    2107.9052   -870.42688   -3597.0256    462.73254     -221.126   -8907.0432   -4607.2269    -392.4545    5756.8409 
    1000    1993.0333     -866.576   -2008.4446    1850.5004    1257.2152   -9055.9762     4866.252    979.49352    1565.5839 
Loop time of 0.138946 on 8 procs for 1000 steps with 216 atoms

Performance: 621.826 ns/day, 0.039 hours/ns, 7197.060 timesteps/s
100.0% CPU use with 8 MPI tasks x no OpenMP threads

MPI task timing breakdown:
Section |  min time  |  avg time  |  max time  |%varavg| %total
---------------------------------------------------------------
Pair    | 0.080446   | 0.08801    | 0.097076   |   1.8 | 63.34
Neigh   | 0.0010941  | 0.0012014  | 0.0012959  |   0.2 |  0.86
Comm    | 0.033729   | 0.042728   | 0.050428   |   2.6 | 30.75
Output  | 0.00021304 | 0.00022729 | 0.00025909 |   0.0 |  0.16
Modify  | 0.0027786  | 0.0029318  | 0.0030413  |   0.2 |  2.11
Other   |            | 0.003847   |            |       |  2.77

Nlocal:    27 ave 30 max 24 min
Histogram: 2 0 0 1 0 2 1 0 0 2
Nghost:    253 ave 256 max 250 min
Histogram: 1 1 0 3 0 0 0 0 1 2
Neighs:    0 ave 0 max 0 min
Histogram: 8 0 0 0 0 0 0 0 0 0
FullNghs:  692.25 ave 781 max 602 min
Histogram: 2 0 1 0 0 2 1 0 1 1

Total # of neighbors = 5538
Ave neighs/atom = 25.6389
Neighbor list builds = 30
Dangerous builds = 0
include potential.mod
# NOTE: This script can be modified for different pair styles
# See in.elastic for more info.

reset_timestep 0

# Choose potential
pair_style	sw
pair_coeff * * Si.sw Si
Reading potential file Si.sw with DATE: 2007-06-11

# Setup neighbor style
neighbor 1.0 nsq
neigh_modify once no every 1 delay 0 check yes

# Setup output

fix avp all ave/time  ${nevery} ${nrepeat} ${nfreq} c_thermo_press mode vector
fix avp all ave/time  10 ${nrepeat} ${nfreq} c_thermo_press mode vector
fix avp all ave/time  10 10 ${nfreq} c_thermo_press mode vector
fix avp all ave/time  10 10 100 c_thermo_press mode vector
thermo		${nthermo}
thermo		100
thermo_style custom step temp pe press f_avp[1] f_avp[2] f_avp[3] f_avp[4] f_avp[5] f_avp[6]
WARNING: New thermo_style command, previous thermo_modify settings will be lost (../output.cpp:705)
thermo_modify norm no

# Setup MD

timestep ${timestep}
timestep 0.001
fix 4 all nve
if "${thermostat} == 1" then    "fix 5 all langevin ${temp} ${temp} ${tdamp} ${seed}"
fix 5 all langevin ${temp} ${temp} ${tdamp} ${seed}
fix 5 all langevin 2000 ${temp} ${tdamp} ${seed}
fix 5 all langevin 2000 2000 ${tdamp} ${seed}
fix 5 all langevin 2000 2000 0.01 ${seed}
fix 5 all langevin 2000 2000 0.01 123457


run ${nrun}
run 300
Per MPI rank memory allocation (min/avg/max) = 2.678 | 2.912 | 3.052 Mbytes
Step Temp PotEng Press f_avp[1] f_avp[2] f_avp[3] f_avp[4] f_avp[5] f_avp[6] 
       0    1993.0333     -866.576   -2008.4446            0            0            0            0            0            0 
     100    2040.5849    -874.3838   -4132.3603    1534.0602    1121.8828   -8417.6135    -2405.659    3954.6193   -34.190513 
     200    2073.5382   -874.32655   -838.08416    628.75361   -46.235109   -8776.3532    231.03354    1830.0205   -1271.0738 
     300    1927.5294   -863.61616   -19.100376    2624.7473    3381.2029   -5899.8922    1574.5712    4485.1196   -401.56988 
Loop time of 0.0428372 on 8 procs for 300 steps with 216 atoms

Performance: 605.082 ns/day, 0.040 hours/ns, 7003.264 timesteps/s
100.0% CPU use with 8 MPI tasks x no OpenMP threads

MPI task timing breakdown:
Section |  min time  |  avg time  |  max time  |%varavg| %total
---------------------------------------------------------------
Pair    | 0.024072   | 0.027004   | 0.031755   |   1.9 | 63.04
Neigh   | 0.00039296 | 0.0004131  | 0.00044075 |   0.0 |  0.96
Comm    | 0.0085432  | 0.013254   | 0.016141   |   2.7 | 30.94
Output  | 6.5428e-05 | 6.927e-05  | 7.6058e-05 |   0.0 |  0.16
Modify  | 0.00088927 | 0.00091794 | 0.00094407 |   0.0 |  2.14
Other   |            | 0.001179   |            |       |  2.75

Nlocal:    27 ave 29 max 26 min
Histogram: 3 0 0 3 0 0 1 0 0 1
Nghost:    252 ave 254 max 250 min
Histogram: 1 0 3 0 0 0 0 3 0 1
Neighs:    0 ave 0 max 0 min
Histogram: 8 0 0 0 0 0 0 0 0 0
FullNghs:  691 ave 737 max 657 min
Histogram: 3 0 0 0 3 0 0 0 0 2

Total # of neighbors = 5528
Ave neighs/atom = 25.5926
Neighbor list builds = 10
Dangerous builds = 0

# Obtain new stress tensor

variable tmp equal pe
variable e1 equal ${tmp}
variable e1 equal -863.616155849
variable tmp equal press
variable p1 equal ${tmp}
variable p1 equal -19.1003764113161
variable tmp equal pxx
variable pxx1 equal ${tmp}
variable pxx1 equal 3510.68722098962
variable tmp equal pyy
variable pyy1 equal ${tmp}
variable pyy1 equal 3269.59451690839
variable tmp equal pzz
variable pzz1 equal ${tmp}
variable pzz1 equal -6837.58286713197
variable tmp equal pxy
variable pxy1 equal ${tmp}
variable pxy1 equal -14535.8682509174
variable tmp equal pxz
variable pxz1 equal ${tmp}
variable pxz1 equal -3059.80222022768
variable tmp equal pyz
variable pyz1 equal ${tmp}
variable pyz1 equal -357.07949927309

# Compute elastic constant from pressure tensor

variable C1pos equal ${d1}
variable C1pos equal 64.8792102354669
variable C2pos equal ${d2}
variable C2pos equal 66.3392712604461
variable C3pos equal ${d3}
variable C3pos equal 128.315368975407
variable C4pos equal ${d4}
variable C4pos equal 16.7678389392693
variable C5pos equal ${d5}
variable C5pos equal 7.4078781438197
variable C6pos equal ${d6}
variable C6pos equal 67.5864432038935

# Combine positive and negative

variable C1${dir} equal 0.5*(${C1neg}+${C1pos})
variable C13 equal 0.5*(${C1neg}+${C1pos})
variable C13 equal 0.5*(94.969624870168+${C1pos})
variable C13 equal 0.5*(94.969624870168+64.8792102354669)
variable C2${dir} equal 0.5*(${C2neg}+${C2pos})
variable C23 equal 0.5*(${C2neg}+${C2pos})
variable C23 equal 0.5*(90.21915495967+${C2pos})
variable C23 equal 0.5*(90.21915495967+66.3392712604461)
variable C3${dir} equal 0.5*(${C3neg}+${C3pos})
variable C33 equal 0.5*(${C3neg}+${C3pos})
variable C33 equal 0.5*(131.941543247366+${C3pos})
variable C33 equal 0.5*(131.941543247366+128.315368975407)
variable C4${dir} equal 0.5*(${C4neg}+${C4pos})
variable C43 equal 0.5*(${C4neg}+${C4pos})
variable C43 equal 0.5*(-26.6936137373349+${C4pos})
variable C43 equal 0.5*(-26.6936137373349+16.7678389392693)
variable C5${dir} equal 0.5*(${C5neg}+${C5pos})
variable C53 equal 0.5*(${C5neg}+${C5pos})
variable C53 equal 0.5*(36.2845036127193+${C5pos})
variable C53 equal 0.5*(36.2845036127193+7.4078781438197)
variable C6${dir} equal 0.5*(${C6neg}+${C6pos})
variable C63 equal 0.5*(${C6neg}+${C6pos})
variable C63 equal 0.5*(8.53631737320858+${C6pos})
variable C63 equal 0.5*(8.53631737320858+67.5864432038935)

# Delete dir to make sure it is not reused

variable dir delete

# uyz Perturbation

variable dir equal 4
include displace.mod
# NOTE: This script should not need to be
# modified. See in.elastic for more info.
#
# Find which reference length to use

if "${dir} == 1" then    "variable len0 equal ${lx0}"
if "${dir} == 2" then    "variable len0 equal ${ly0}"
if "${dir} == 3" then    "variable len0 equal ${lz0}"
if "${dir} == 4" then    "variable len0 equal ${lz0}"
variable len0 equal ${lz0}
variable len0 equal 16.293
if "${dir} == 5" then    "variable len0 equal ${lz0}"
if "${dir} == 6" then    "variable len0 equal ${ly0}"

# Reset box and simulation parameters

clear
box tilt large
read_restart restart.equil
  restoring atom style atomic from restart
  triclinic box = (0 0 0) to (16.293 16.293 16.293) with tilt (0 0 0)
  2 by 2 by 2 MPI processor grid
  pair style sw stores no restart info
  216 atoms
include potential.mod
# NOTE: This script can be modified for different pair styles
# See in.elastic for more info.

reset_timestep 0

# Choose potential
pair_style	sw
pair_coeff * * Si.sw Si
Reading potential file Si.sw with DATE: 2007-06-11

# Setup neighbor style
neighbor 1.0 nsq
neigh_modify once no every 1 delay 0 check yes

# Setup output

fix avp all ave/time  ${nevery} ${nrepeat} ${nfreq} c_thermo_press mode vector
fix avp all ave/time  10 ${nrepeat} ${nfreq} c_thermo_press mode vector
fix avp all ave/time  10 10 ${nfreq} c_thermo_press mode vector
fix avp all ave/time  10 10 100 c_thermo_press mode vector
thermo		${nthermo}
thermo		100
thermo_style custom step temp pe press f_avp[1] f_avp[2] f_avp[3] f_avp[4] f_avp[5] f_avp[6]
thermo_modify norm no

# Setup MD

timestep ${timestep}
timestep 0.001
fix 4 all nve
if "${thermostat} == 1" then    "fix 5 all langevin ${temp} ${temp} ${tdamp} ${seed}"
fix 5 all langevin ${temp} ${temp} ${tdamp} ${seed}
fix 5 all langevin 2000 ${temp} ${tdamp} ${seed}
fix 5 all langevin 2000 2000 ${tdamp} ${seed}
fix 5 all langevin 2000 2000 0.01 ${seed}
fix 5 all langevin 2000 2000 0.01 123457



# Negative deformation

variable delta equal -${up}*${len0}
variable delta equal -0.02*${len0}
variable delta equal -0.02*16.293
variable deltaxy equal -${up}*xy
variable deltaxy equal -0.02*xy
variable deltaxz equal -${up}*xz
variable deltaxz equal -0.02*xz
variable deltayz equal -${up}*yz
variable deltayz equal -0.02*yz
if "${dir} == 1" then    "change_box all x delta 0 ${delta} xy delta ${deltaxy} xz delta ${deltaxz} remap units box"
if "${dir} == 2" then    "change_box all y delta 0 ${delta} yz delta ${deltayz} remap units box"
if "${dir} == 3" then    "change_box all z delta 0 ${delta} remap units box"
if "${dir} == 4" then    "change_box all yz delta ${delta} remap units box"
change_box all yz delta ${delta} remap units box
change_box all yz delta -0.32586 remap units box
  triclinic box = (0 0 0) to (16.293 16.293 16.293) with tilt (0 0 -0.32586)
if "${dir} == 5" then    "change_box all xz delta ${delta} remap units box"
if "${dir} == 6" then    "change_box all xy delta ${delta} remap units box"

# Run MD

run ${nequil}
run 1000
Neighbor list info ...
  update every 1 steps, delay 0 steps, check yes
  max neighbors/atom: 2000, page size: 100000
  master list distance cutoff = 4.77118
  ghost atom cutoff = 4.77118
  1 neighbor lists, perpetual/occasional/extra = 1 0 0
  (1) pair sw, perpetual
      attributes: full, newton on
      pair build: full/nsq
      stencil: none
      bin: none
Per MPI rank memory allocation (min/avg/max) = 2.678 | 2.818 | 3.052 Mbytes
Step Temp PotEng Press f_avp[1] f_avp[2] f_avp[3] f_avp[4] f_avp[5] f_avp[6] 
       0    1947.9897   -878.47527     15483.67            0            0            0            0            0            0 
     100    2016.4848   -874.83765     15395.49     16541.11    14891.135     18256.08   -71.654875    801.98344    7484.1028 
[...]
---------------------------------------------------------------
Pair    | 0.028611   | 0.030833   | 0.034106   |   1.1 | 66.82
Neigh   | 0.00036737 | 0.00038575 | 0.0004205  |   0.0 |  0.84
Comm    | 0.0095534  | 0.012754   | 0.015018   |   1.6 | 27.64
Output  | 6.9555e-05 | 7.3725e-05 | 8.2068e-05 |   0.0 |  0.16
Modify  | 0.00091792 | 0.00093013 | 0.00094988 |   0.0 |  2.02
Other   |            | 0.001168   |            |       |  2.53

Nlocal:    27 ave 30 max 23 min
Histogram: 1 0 0 0 1 3 0 2 0 1
Nghost:    252.5 ave 256 max 250 min
Histogram: 1 1 0 2 0 3 0 0 0 1
Neighs:    0 ave 0 max 0 min
Histogram: 8 0 0 0 0 0 0 0 0 0
FullNghs:  714 ave 797 max 610 min
Histogram: 1 0 0 0 1 3 2 0 0 1

Total # of neighbors = 5712
Ave neighs/atom = 26.4444
Neighbor list builds = 9
Dangerous builds = 0

# Obtain new stress tensor

variable pxx1 equal f_avp[1]
variable pyy1 equal f_avp[2]
variable pzz1 equal f_avp[3]
variable pxy1 equal f_avp[4]
variable pxz1 equal f_avp[5]
variable pyz1 equal f_avp[6]

# Compute elastic constant from pressure tensor

variable C1neg equal ${d1}
variable C1neg equal 4.630424201722
variable C2neg equal ${d2}
variable C2neg equal 6.3619516191925
variable C3neg equal ${d3}
variable C3neg equal 0.978082773753504
variable C4neg equal ${d4}
variable C4neg equal -19.3970320447707
variable C5neg equal ${d5}
variable C5neg equal -1.67054860732695
variable C6neg equal ${d6}
variable C6neg equal 27.4462752301949

# Reset box and simulation parameters

clear
box tilt large
read_restart restart.equil
  restoring atom style atomic from restart
  triclinic box = (0 0 0) to (16.293 16.293 16.293) with tilt (0 0 0)
  2 by 2 by 2 MPI processor grid
  pair style sw stores no restart info
  216 atoms
include potential.mod
# NOTE: This script can be modified for different pair styles
# See in.elastic for more info.

reset_timestep 0

# Choose potential
pair_style	sw
pair_coeff * * Si.sw Si
Reading potential file Si.sw with DATE: 2007-06-11

# Setup neighbor style
neighbor 1.0 nsq
neigh_modify once no every 1 delay 0 check yes

# Setup output

fix avp all ave/time  ${nevery} ${nrepeat} ${nfreq} c_thermo_press mode vector
fix avp all ave/time  10 ${nrepeat} ${nfreq} c_thermo_press mode vector
fix avp all ave/time  10 10 ${nfreq} c_thermo_press mode vector
fix avp all ave/time  10 10 100 c_thermo_press mode vector
thermo		${nthermo}
thermo		100
thermo_style custom step temp pe press f_avp[1] f_avp[2] f_avp[3] f_avp[4] f_avp[5] f_avp[6]
thermo_modify norm no

# Setup MD

timestep ${timestep}
timestep 0.001
fix 4 all nve
if "${thermostat} == 1" then    "fix 5 all langevin ${temp} ${temp} ${tdamp} ${seed}"
fix 5 all langevin ${temp} ${temp} ${tdamp} ${seed}
fix 5 all langevin 2000 ${temp} ${tdamp} ${seed}
fix 5 all langevin 2000 2000 ${tdamp} ${seed}
fix 5 all langevin 2000 2000 0.01 ${seed}
fix 5 all langevin 2000 2000 0.01 123457



# Positive deformation

variable delta equal ${up}*${len0}
variable delta equal 0.02*${len0}
variable delta equal 0.02*16.293
variable deltaxy equal ${up}*xy
variable deltaxy equal 0.02*xy
variable deltaxz equal ${up}*xz
variable deltaxz equal 0.02*xz
variable deltayz equal ${up}*yz
variable deltayz equal 0.02*yz
if "${dir} == 1" then    "change_box all x delta 0 ${delta} xy delta ${deltaxy} xz delta ${deltaxz} remap units box"
if "${dir} == 2" then    "change_box all y delta 0 ${delta} yz delta ${deltayz} remap units box"
if "${dir} == 3" then    "change_box all z delta 0 ${delta} remap units box"
if "${dir} == 4" then    "change_box all yz delta ${delta} remap units box"
if "${dir} == 5" then    "change_box all xz delta ${delta} remap units box"
if "${dir} == 6" then    "change_box all xy delta ${delta} remap units box"
change_box all xy delta ${delta} remap units box
change_box all xy delta 0.32586 remap units box
  triclinic box = (0 0 0) to (16.293 16.293 16.293) with tilt (0.32586 0 0)

# Run MD

run ${nequil}
run 1000
Neighbor list info ...
  update every 1 steps, delay 0 steps, check yes
  max neighbors/atom: 2000, page size: 100000
  master list distance cutoff = 4.77118
  ghost atom cutoff = 4.77118
  1 neighbor lists, perpetual/occasional/extra = 1 0 0
  (1) pair sw, perpetual
      attributes: full, newton on
      pair build: full/nsq
      stencil: none
      bin: none
Per MPI rank memory allocation (min/avg/max) = 2.678 | 2.818 | 3.052 Mbytes
Step Temp PotEng Press f_avp[1] f_avp[2] f_avp[3] f_avp[4] f_avp[5] f_avp[6] 
       0    1947.9897   -878.53629    15550.885            0            0            0            0            0            0 
     100    2072.9352   -868.46826     14763.96    16477.364    14750.536     17546.16   -11769.793    486.50187   -2416.5326 
     200    2087.3244   -871.06668    16654.206    15196.222    15014.881    17430.858   -8481.2975    28.870509     2871.997 
     300    1973.7319   -876.23077     16497.85    19602.719    15441.559    17345.692   -9483.2674   -3270.3845      662.856 
     400    2012.5729   -867.00353    16204.872    15909.537    15774.502    15297.575   -10598.001     938.9269   -4617.7608 
     500    2142.5325   -871.73871    17919.015    16689.963    16703.735    17262.303   -9180.6483    -2687.852    2138.3932 
     600    2157.2913   -871.66191    18659.646    15499.716    14845.452    17301.541   -6882.7988   -2973.6986    7613.7382 
     700    1848.2609   -867.57593    15888.865    14955.548    14565.214    15667.117   -10927.575    4870.0879    2927.8651 
     800    2025.4126   -872.37632    18533.114    15105.563    15057.965    17801.877   -4621.4209   -1921.9046     2806.635 
     900    1869.9823   -872.69694    18146.612    16067.367    20808.097    17943.103   -6327.3416    798.90646    398.02544 
    1000    1755.7134   -875.46407    16000.141    17276.589    19707.798    18078.676   -7175.7999    -4396.299   -3848.6531 
Loop time of 0.15568 on 8 procs for 1000 steps with 216 atoms

Performance: 554.984 ns/day, 0.043 hours/ns, 6423.424 timesteps/s
100.0% CPU use with 8 MPI tasks x no OpenMP threads

MPI task timing breakdown:
Section |  min time  |  avg time  |  max time  |%varavg| %total
---------------------------------------------------------------
Pair    | 0.095109   | 0.10001    | 0.11472    |   1.8 | 64.24
Neigh   | 0.0011808  | 0.001276   | 0.0015318  |   0.3 |  0.82
Comm    | 0.03244    | 0.046955   | 0.051802   |   2.6 | 30.16
Output  | 0.0002285  | 0.00023942 | 0.00027786 |   0.0 |  0.15
Modify  | 0.002917   | 0.0030276  | 0.0034571  |   0.3 |  1.94
Other   |            | 0.004172   |            |       |  2.68

Nlocal:    27 ave 29 max 26 min
Histogram: 5 0 0 0 0 0 1 0 0 2
Nghost:    252 ave 253 max 251 min
Histogram: 3 0 0 0 0 2 0 0 0 3
Neighs:    0 ave 0 max 0 min
Histogram: 8 0 0 0 0 0 0 0 0 0
FullNghs:  709.25 ave 766 max 672 min
Histogram: 3 1 1 0 0 0 1 0 0 2

Total # of neighbors = 5674
Ave neighs/atom = 26.2685
Neighbor list builds = 31
Dangerous builds = 0
include potential.mod
# NOTE: This script can be modified for different pair styles
# See in.elastic for more info.

reset_timestep 0

# Choose potential
pair_style	sw
pair_coeff * * Si.sw Si
Reading potential file Si.sw with DATE: 2007-06-11

# Setup neighbor style
neighbor 1.0 nsq
neigh_modify once no every 1 delay 0 check yes

# Setup output

fix avp all ave/time  ${nevery} ${nrepeat} ${nfreq} c_thermo_press mode vector
fix avp all ave/time  10 ${nrepeat} ${nfreq} c_thermo_press mode vector
fix avp all ave/time  10 10 ${nfreq} c_thermo_press mode vector
fix avp all ave/time  10 10 100 c_thermo_press mode vector
thermo		${nthermo}
thermo		100
thermo_style custom step temp pe press f_avp[1] f_avp[2] f_avp[3] f_avp[4] f_avp[5] f_avp[6]
WARNING: New thermo_style command, previous thermo_modify settings will be lost (../output.cpp:705)
thermo_modify norm no

# Setup MD

timestep ${timestep}
timestep 0.001
fix 4 all nve
if "${thermostat} == 1" then    "fix 5 all langevin ${temp} ${temp} ${tdamp} ${seed}"
fix 5 all langevin ${temp} ${temp} ${tdamp} ${seed}
fix 5 all langevin 2000 ${temp} ${tdamp} ${seed}
fix 5 all langevin 2000 2000 ${tdamp} ${seed}
fix 5 all langevin 2000 2000 0.01 ${seed}
fix 5 all langevin 2000 2000 0.01 123457


run ${nrun}
run 300
Per MPI rank memory allocation (min/avg/max) = 2.678 | 2.943 | 3.052 Mbytes
Step Temp PotEng Press f_avp[1] f_avp[2] f_avp[3] f_avp[4] f_avp[5] f_avp[6] 
       0    1755.7134   -875.46407    16000.141            0            0            0            0            0            0 
     100    1927.4138   -876.26362    15478.927    15944.114    16539.623    16435.327   -13896.083    5778.9819   -2797.7661 
     200    2052.2782   -878.64489    20073.444    17245.377    17701.346    17586.307   -7811.2459    1872.1365   -4220.4868 
     300    1847.5618   -872.51724    18334.416    17982.238     19442.73    18392.273   -6979.7903   -2859.2385   -3600.8543 
Loop time of 0.045601 on 8 procs for 300 steps with 216 atoms

Performance: 568.408 ns/day, 0.042 hours/ns, 6578.801 timesteps/s
100.0% CPU use with 8 MPI tasks x no OpenMP threads

MPI task timing breakdown:
Section |  min time  |  avg time  |  max time  |%varavg| %total
---------------------------------------------------------------
Pair    | 0.026652   | 0.030078   | 0.033668   |   1.3 | 65.96
Neigh   | 0.00040185 | 0.00042942 | 0.00046259 |   0.0 |  0.94
Comm    | 0.0093866  | 0.012911   | 0.016301   |   2.0 | 28.31
Output  | 6.9744e-05 | 7.2109e-05 | 7.9133e-05 |   0.0 |  0.16
Modify  | 0.00086967 | 0.00091262 | 0.0010053  |   0.0 |  2.00
Other   |            | 0.001198   |            |       |  2.63

Nlocal:    27 ave 31 max 25 min
Histogram: 2 3 0 0 0 1 1 0 0 1
Nghost:    253.5 ave 257 max 249 min
Histogram: 1 0 1 1 0 1 0 2 1 1
Neighs:    0 ave 0 max 0 min
Histogram: 8 0 0 0 0 0 0 0 0 0
FullNghs:  703.5 ave 805 max 643 min
Histogram: 2 1 2 0 0 0 1 1 0 1

Total # of neighbors = 5628
Ave neighs/atom = 26.0556
Neighbor list builds = 10
Dangerous builds = 0

# Obtain new stress tensor

variable tmp equal pe
variable e1 equal ${tmp}
variable e1 equal -872.517244612991
variable tmp equal press
variable p1 equal ${tmp}
variable p1 equal 18334.4160693197
variable tmp equal pxx
variable pxx1 equal ${tmp}
variable pxx1 equal 19540.2693056725
variable tmp equal pyy
variable pyy1 equal ${tmp}
variable pyy1 equal 16204.7265958723
variable tmp equal pzz
variable pzz1 equal ${tmp}
variable pzz1 equal 19258.2523064142
variable tmp equal pxy
variable pxy1 equal ${tmp}
variable pxy1 equal 3384.88559983138
variable tmp equal pxz
variable pxz1 equal ${tmp}
variable pxz1 equal 6492.267410761
variable tmp equal pyz
variable pyz1 equal ${tmp}
variable pyz1 equal 955.959945272458

# Compute elastic constant from pressure tensor

variable C1pos equal ${d1}
variable C1pos equal -15.2687001879475
variable C2pos equal ${d2}
variable C2pos equal 1.66361086562651
variable C3pos equal ${d3}
variable C3pos equal -2.1638068923235
variable C4pos equal ${d4}
variable C4pos equal 10.2026417165415
variable C5pos equal ${d5}
variable C5pos equal -40.3524700111237
variable C6pos equal ${d6}
variable C6pos equal -22.0173260498505

# Combine positive and negative

variable C1${dir} equal 0.5*(${C1neg}+${C1pos})
variable C16 equal 0.5*(${C1neg}+${C1pos})
variable C16 equal 0.5*(4.630424201722+${C1pos})
variable C16 equal 0.5*(4.630424201722+-15.2687001879475)
variable C2${dir} equal 0.5*(${C2neg}+${C2pos})
variable C26 equal 0.5*(${C2neg}+${C2pos})
variable C26 equal 0.5*(6.3619516191925+${C2pos})
variable C26 equal 0.5*(6.3619516191925+1.66361086562651)
variable C3${dir} equal 0.5*(${C3neg}+${C3pos})
variable C36 equal 0.5*(${C3neg}+${C3pos})
variable C36 equal 0.5*(0.978082773753504+${C3pos})
variable C36 equal 0.5*(0.978082773753504+-2.1638068923235)
variable C4${dir} equal 0.5*(${C4neg}+${C4pos})
variable C46 equal 0.5*(${C4neg}+${C4pos})
variable C46 equal 0.5*(-19.3970320447707+${C4pos})
variable C46 equal 0.5*(-19.3970320447707+10.2026417165415)
variable C5${dir} equal 0.5*(${C5neg}+${C5pos})
variable C56 equal 0.5*(${C5neg}+${C5pos})
variable C56 equal 0.5*(-1.67054860732695+${C5pos})
variable C56 equal 0.5*(-1.67054860732695+-40.3524700111237)
variable C6${dir} equal 0.5*(${C6neg}+${C6pos})
variable C66 equal 0.5*(${C6neg}+${C6pos})
variable C66 equal 0.5*(27.4462752301949+${C6pos})
variable C66 equal 0.5*(27.4462752301949+-22.0173260498505)

# Delete dir to make sure it is not reused

variable dir delete

# Output final values

variable C11all equal ${C11}
variable C11all equal 135.644958576277
variable C22all equal ${C22}
variable C22all equal 142.833109933258
variable C33all equal ${C33}
variable C33all equal 130.128456111387

variable C12all equal 0.5*(${C12}+${C21})
variable C12all equal 0.5*(89.5266503383058+${C21})
variable C12all equal 0.5*(89.5266503383058+75.9779776970539)
variable C13all equal 0.5*(${C13}+${C31})
variable C13all equal 0.5*(79.9244175528175+${C31})
variable C13all equal 0.5*(79.9244175528175+82.7995015826629)
variable C23all equal 0.5*(${C23}+${C32})
variable C23all equal 0.5*(78.2792131100581+${C32})
variable C23all equal 0.5*(78.2792131100581+80.0296736277409)

variable C44all equal ${C44}
variable C44all equal 31.3263345737522
variable C55all equal ${C55}
variable C55all equal 35.2364718840226
variable C66all equal ${C66}
variable C66all equal 2.7144745901722

variable C14all equal 0.5*(${C14}+${C41})
variable C14all equal 0.5*(-5.85653291779376+${C41})
variable C14all equal 0.5*(-5.85653291779376+-11.4773535309393)
variable C15all equal 0.5*(${C15}+${C51})
variable C15all equal 0.5*(5.76506601511875+${C51})
variable C15all equal 0.5*(5.76506601511875+3.93116919860645)
variable C16all equal 0.5*(${C16}+${C61})
variable C16all equal 0.5*(-5.31913799311275+${C61})
variable C16all equal 0.5*(-5.31913799311275+-1.61269823621755)

variable C24all equal 0.5*(${C24}+${C42})
variable C24all equal 0.5*(11.8835576410722+${C42})
variable C24all equal 0.5*(11.8835576410722+6.37037571945065)
variable C25all equal 0.5*(${C25}+${C52})
variable C25all equal 0.5*(1.145016100281+${C52})
variable C25all equal 0.5*(1.145016100281+-9.99057549896305)
variable C26all equal 0.5*(${C26}+${C62})
variable C26all equal 0.5*(4.01278124240951+${C62})
variable C26all equal 0.5*(4.01278124240951+6.66661150118722)

variable C34all equal 0.5*(${C34}+${C43})
variable C34all equal 0.5*(2.5037147889695+${C43})
variable C34all equal 0.5*(2.5037147889695+-4.9628873990328)
variable C35all equal 0.5*(${C35}+${C53})
variable C35all equal 0.5*(4.12792320039025+${C53})
variable C35all equal 0.5*(4.12792320039025+21.8461908782695)
variable C36all equal 0.5*(${C36}+${C63})
variable C36all equal 0.5*(-0.592862059284998+${C63})
variable C36all equal 0.5*(-0.592862059284998+38.061380288551)

variable C45all equal 0.5*(${C45}+${C54})
variable C45all equal 0.5*(-12.3371769832592+${C54})
variable C45all equal 0.5*(-12.3371769832592+8.33922284304905)
variable C46all equal 0.5*(${C46}+${C64})
variable C46all equal 0.5*(-4.5971951641146+${C64})
variable C46all equal 0.5*(-4.5971951641146+-11.2436932430492)
variable C56all equal 0.5*(${C56}+${C65})
variable C56all equal 0.5*(-21.0115093092253+${C65})
variable C56all equal 0.5*(-21.0115093092253+-8.83995666967625)

# Average moduli for cubic crystals

variable C11cubic equal (${C11all}+${C22all}+${C33all})/3.0
variable C11cubic equal (135.644958576277+${C22all}+${C33all})/3.0
variable C11cubic equal (135.644958576277+142.833109933258+${C33all})/3.0
variable C11cubic equal (135.644958576277+142.833109933258+130.128456111387)/3.0
variable C12cubic equal (${C12all}+${C13all}+${C23all})/3.0
variable C12cubic equal (82.7523140176799+${C13all}+${C23all})/3.0
variable C12cubic equal (82.7523140176799+81.3619595677402+${C23all})/3.0
variable C12cubic equal (82.7523140176799+81.3619595677402+79.1544433688995)/3.0
variable C44cubic equal (${C44all}+${C55all}+${C66all})/3.0
variable C44cubic equal (31.3263345737522+${C55all}+${C66all})/3.0
variable C44cubic equal (31.3263345737522+35.2364718840226+${C66all})/3.0
variable C44cubic equal (31.3263345737522+35.2364718840226+2.7144745901722)/3.0

variable bulkmodulus equal (${C11cubic}+2*${C12cubic})/3.0
variable bulkmodulus equal (136.202174873641+2*${C12cubic})/3.0
variable bulkmodulus equal (136.202174873641+2*81.0895723181065)/3.0
variable shearmodulus1 equal ${C44cubic}
variable shearmodulus1 equal 23.0924270159823
variable shearmodulus2 equal (${C11cubic}-${C12cubic})/2.0
variable shearmodulus2 equal (136.202174873641-${C12cubic})/2.0
variable shearmodulus2 equal (136.202174873641-81.0895723181065)/2.0
variable poissonratio equal 1.0/(1.0+${C11cubic}/${C12cubic})
variable poissonratio equal 1.0/(1.0+136.202174873641/${C12cubic})
variable poissonratio equal 1.0/(1.0+136.202174873641/81.0895723181065)

# For Stillinger-Weber silicon, the analytical results
# are known to be (E. R. Cowley, 1988):
#               C11 = 151.4 GPa
#               C12 = 76.4 GPa
#               C44 = 56.4 GPa

print "========================================="
=========================================
print "Components of the Elastic Constant Tensor"
Components of the Elastic Constant Tensor
print "========================================="
=========================================

print "Elastic Constant C11all = ${C11all} ${cunits}"
Elastic Constant C11all = 135.644958576277 GPa
print "Elastic Constant C22all = ${C22all} ${cunits}"
Elastic Constant C22all = 142.833109933258 GPa
print "Elastic Constant C33all = ${C33all} ${cunits}"
Elastic Constant C33all = 130.128456111387 GPa

print "Elastic Constant C12all = ${C12all} ${cunits}"
Elastic Constant C12all = 82.7523140176799 GPa
print "Elastic Constant C13all = ${C13all} ${cunits}"
Elastic Constant C13all = 81.3619595677402 GPa
print "Elastic Constant C23all = ${C23all} ${cunits}"
Elastic Constant C23all = 79.1544433688995 GPa

print "Elastic Constant C44all = ${C44all} ${cunits}"
Elastic Constant C44all = 31.3263345737522 GPa
print "Elastic Constant C55all = ${C55all} ${cunits}"
Elastic Constant C55all = 35.2364718840226 GPa
print "Elastic Constant C66all = ${C66all} ${cunits}"
Elastic Constant C66all = 2.7144745901722 GPa

print "Elastic Constant C14all = ${C14all} ${cunits}"
Elastic Constant C14all = -8.66694322436653 GPa
print "Elastic Constant C15all = ${C15all} ${cunits}"
Elastic Constant C15all = 4.8481176068626 GPa
print "Elastic Constant C16all = ${C16all} ${cunits}"
Elastic Constant C16all = -3.46591811466515 GPa

print "Elastic Constant C24all = ${C24all} ${cunits}"
Elastic Constant C24all = 9.12696668026143 GPa
print "Elastic Constant C25all = ${C25all} ${cunits}"
Elastic Constant C25all = -4.42277969934103 GPa
print "Elastic Constant C26all = ${C26all} ${cunits}"
Elastic Constant C26all = 5.33969637179836 GPa

print "Elastic Constant C34all = ${C34all} ${cunits}"
Elastic Constant C34all = -1.22958630503165 GPa
print "Elastic Constant C35all = ${C35all} ${cunits}"
Elastic Constant C35all = 12.9870570393299 GPa
print "Elastic Constant C36all = ${C36all} ${cunits}"
Elastic Constant C36all = 18.734259114633 GPa

print "Elastic Constant C45all = ${C45all} ${cunits}"
Elastic Constant C45all = -1.99897707010507 GPa
print "Elastic Constant C46all = ${C46all} ${cunits}"
Elastic Constant C46all = -7.9204442035819 GPa
print "Elastic Constant C56all = ${C56all} ${cunits}"
Elastic Constant C56all = -14.9257329894508 GPa

print "========================================="
=========================================
print "Average properties for a cubic crystal"
Average properties for a cubic crystal
print "========================================="
=========================================

print "Bulk Modulus = ${bulkmodulus} ${cunits}"
Bulk Modulus = 99.460439836618 GPa
print "Shear Modulus 1 = ${shearmodulus1} ${cunits}"
Shear Modulus 1 = 23.0924270159823 GPa
print "Shear Modulus 2 = ${shearmodulus2} ${cunits}"
Shear Modulus 2 = 27.5563012777673 GPa
print "Poisson Ratio = ${poissonratio}"
Poisson Ratio = 0.373182936609873
Total wall time: 0:00:02
