LAMMPS (17 Feb 2022)
# Solvated 5-mer peptide

units		real
atom_style	full

pair_style	lj/charmm/coul/long 8.0 10.0 10.0
bond_style      harmonic
angle_style     charmm
dihedral_style  charmm
improper_style  harmonic
kspace_style	pppm 0.0001

read_data	data.peptide
Reading data file ...
  orthogonal box = (36.840194 41.013691 29.768095) to (64.21156 68.385058 57.139462)
  2 by 2 by 2 MPI processor grid
  reading atoms ...
  2004 atoms
  reading velocities ...
  2004 velocities
  scanning bonds ...
  3 = max bonds/atom
  scanning angles ...
  6 = max angles/atom
  scanning dihedrals ...
  14 = max dihedrals/atom
  scanning impropers ...
  1 = max impropers/atom
  reading bonds ...
  1365 bonds
  reading angles ...
  786 angles
  reading dihedrals ...
  207 dihedrals
  reading impropers ...
  12 impropers
Finding 1-2 1-3 1-4 neighbors ...
  special bond factors lj:    0        0        0       
  special bond factors coul:  0        0        0       
     4 = max # of 1-2 neighbors
     7 = max # of 1-3 neighbors
    14 = max # of 1-4 neighbors
    18 = max # of special neighbors
  special bonds CPU = 0.001 seconds
  read_data CPU = 0.030 seconds

neighbor	2.0 bin
neigh_modify	delay 5

timestep	2.0

thermo_style	multi
thermo		50

fix		1 all nvt temp 275.0 275.0 100.0 tchain 1
fix		2 all shake 0.0001 10 100 b 4 6 8 10 12 14 18 a 31
      19 = # of size 2 clusters
       6 = # of size 3 clusters
       3 = # of size 4 clusters
     640 = # of frozen angles
  find clusters CPU = 0.001 seconds

group		peptide type <= 12
84 atoms in group peptide

#dump		1 peptide atom 10 dump.peptide

#dump		2 peptide image 25 image.*.jpg type type #		axes yes 0.8 0.02 view 60 -30 bond atom 0.5
#dump_modify	2 pad 3

#dump		3 peptide movie 25 movie.mpg type type #		axes yes 0.8 0.02 view 60 -30 bond atom 0.5
#dump_modify	3 pad 3

#compute		bnd all property/local btype batom1 batom2
#dump		2 peptide local 300 dump.bond index c_bnd[1] c_bnd[2] c_bnd[3]

run		300
PPPM initialization ...
  using 12-bit tables for long-range coulomb (src/kspace.cpp:340)
  G vector (1/distance) = 0.26872465
  grid = 15 15 15
  stencil order = 5
  estimated absolute RMS force accuracy = 0.022820853
  estimated relative force accuracy = 6.872432e-05
  using double precision FFTW3
  3d grid and FFT values/proc = 2744 512
  generated 91 of 91 mixed pair_coeff terms from arithmetic mixing rule
Neighbor list info ...
  update every 1 steps, delay 5 steps, check yes
  max neighbors/atom: 2000, page size: 100000
  master list distance cutoff = 12
  ghost atom cutoff = 12
  binsize = 6, bins = 5 5 5
  1 neighbor lists, perpetual/occasional/extra = 1 0 0
  (1) pair lj/charmm/coul/long, perpetual
      attributes: half, newton on
      pair build: half/bin/newton
      stencil: half/bin/3d
      bin: standard
SHAKE stats (type/ave/delta/count) on step 0
Bond:    4   1.111     1.44264e-05        9
Bond:    6   0.996998  7.26967e-06        6
Bond:    8   1.08      1.32536e-05        6
Bond:   10   1.111     1.22749e-05        8
Bond:   12   1.08      1.11767e-05        9
Bond:   14   0.96      0                  1
Bond:   18   0.957206  4.37979e-05     1280
Angle:  31   104.519   0.00396029       640
Per MPI rank memory allocation (min/avg/max) = 15.4 | 15.5 | 15.78 Mbytes
---------------- Step        0 ----- CPU =      0.0000 (sec) ----------------
TotEng   =     -5237.4580 KinEng   =      1134.9186 Temp     =       282.1005 
PotEng   =     -6372.3766 E_bond   =        16.5572 E_angle  =        36.3726 
E_dihed  =        15.5190 E_impro  =         1.9426 E_vdwl   =       692.8945 
E_coul   =     26772.2646 E_long   =    -33907.9271 Press    =      -837.0112 
---------------- Step       50 ----- CPU =      0.2786 (sec) ----------------
TotEng   =     -5247.5537 KinEng   =      1132.4000 Temp     =       281.4745 
PotEng   =     -6379.9537 E_bond   =        12.2118 E_angle  =        31.7365 
E_dihed  =        18.8145 E_impro  =         2.3611 E_vdwl   =       658.1785 
E_coul   =     26804.4441 E_long   =    -33907.7003 Press    =     -1331.7946 
SHAKE stats (type/ave/delta/count) on step 100
Bond:    4   1.111     7.80613e-07        9
Bond:    6   0.997     1.06181e-06        6
Bond:    8   1.08      6.20292e-07        6
Bond:   10   1.111     6.23284e-07        8
Bond:   12   1.08      2.67996e-07        9
Bond:   14   0.96      0                  1
Bond:   18   0.957201  5.3796e-06      1280
Angle:  31   104.52    0.000502278      640
---------------- Step      100 ----- CPU =      0.5215 (sec) ----------------
TotEng   =     -5257.9979 KinEng   =      1078.0553 Temp     =       267.9663 
PotEng   =     -6336.0532 E_bond   =        14.4829 E_angle  =        43.4429 
E_dihed  =        15.2569 E_impro  =         2.3160 E_vdwl   =       708.3273 
E_coul   =     26786.6829 E_long   =    -33906.5621 Press    =      -648.6819 
---------------- Step      150 ----- CPU =      0.8065 (sec) ----------------
TotEng   =     -5287.2799 KinEng   =      1098.6028 Temp     =       273.0737 
PotEng   =     -6385.8827 E_bond   =        17.4925 E_angle  =        32.8594 
E_dihed  =        15.1624 E_impro  =         1.6522 E_vdwl   =       736.9675 
E_coul   =     26717.2655 E_long   =    -33907.2821 Press    =      -333.1830 
SHAKE stats (type/ave/delta/count) on step 200
Bond:    4   1.111     2.18699e-07        9
Bond:    6   0.997     1.50563e-07        6
Bond:    8   1.08      6.57499e-08        6
Bond:   10   1.111     5.54188e-07        8
Bond:   12   1.08      1.9884e-07         9
Bond:   14   0.96      0                  1
Bond:   18   0.957201  3.59627e-06     1280
Angle:  31   104.52    0.000388335      640
---------------- Step      200 ----- CPU =      1.1006 (sec) ----------------
TotEng   =     -5308.4468 KinEng   =      1100.4874 Temp     =       273.5421 
PotEng   =     -6408.9341 E_bond   =        18.2714 E_angle  =        33.3040 
E_dihed  =        16.8150 E_impro  =         2.6051 E_vdwl   =       686.3221 
E_coul   =     26736.1319 E_long   =    -33902.3837 Press    =     -1470.3402 
---------------- Step      250 ----- CPU =      1.3600 (sec) ----------------
TotEng   =     -5294.1551 KinEng   =      1071.0939 Temp     =       266.2360 
PotEng   =     -6365.2490 E_bond   =        14.2013 E_angle  =        39.1996 
E_dihed  =        19.4585 E_impro  =         3.1407 E_vdwl   =       753.4591 
E_coul   =     26714.0056 E_long   =    -33908.7139 Press    =      -189.5769 
SHAKE stats (type/ave/delta/count) on step 300
Bond:    4   1.111     3.79043e-06        9
Bond:    6   0.997001  3.6052e-06         6
Bond:    8   1.08      2.09369e-06        6
Bond:   10   1.111     5.6484e-06         8
Bond:   12   1.08      2.10676e-06        9
Bond:   14   0.96      0                  1
Bond:   18   0.957202  7.7257e-06      1280
Angle:  31   104.52    0.000806203      640
---------------- Step      300 ----- CPU =      1.7175 (sec) ----------------
TotEng   =     -5251.3638 KinEng   =      1123.7718 Temp     =       279.3298 
PotEng   =     -6375.1355 E_bond   =        14.2206 E_angle  =        38.4274 
E_dihed  =        18.1674 E_impro  =         2.3734 E_vdwl   =       715.3475 
E_coul   =     26745.4072 E_long   =    -33909.0791 Press    =      -471.5487 
Loop time of 1.71756 on 8 procs for 300 steps with 2004 atoms

Performance: 30.182 ns/day, 0.795 hours/ns, 174.666 timesteps/s
95.4% CPU use with 8 MPI tasks x no OpenMP threads

MPI task timing breakdown:
Section |  min time  |  avg time  |  max time  |%varavg| %total
---------------------------------------------------------------
Pair    | 0.836      | 0.90372    | 0.93791    |   3.4 | 52.62
Bond    | 0.00045733 | 0.0036776  | 0.01039    |   6.6 |  0.21
Kspace  | 0.36945    | 0.40727    | 0.49331    |   5.8 | 23.71
Neigh   | 0.1675     | 0.1679     | 0.1688     |   0.1 |  9.78
Comm    | 0.11517    | 0.1316     | 0.13919    |   2.4 |  7.66
Output  | 0.00057518 | 0.000663   | 0.0011211  |   0.0 |  0.04
Modify  | 0.087145   | 0.089281   | 0.090459   |   0.4 |  5.20
Other   |            | 0.01345    |            |       |  0.78

Nlocal:          250.5 ave         260 max         242 min
Histogram: 1 0 1 2 1 0 1 1 0 1
Nghost:        4941.25 ave        5008 max        4880 min
Histogram: 1 1 0 1 1 2 0 0 1 1
Neighs:        88502.4 ave       93276 max       84665 min
Histogram: 1 1 0 2 1 0 1 1 0 1

Total # of neighbors = 708019
Ave neighs/atom = 353.30289
Ave special neighs/atom = 2.3403194
Neighbor list builds = 26
Dangerous builds = 0

Total wall time: 0:00:01
