LAMMPS (2 Aug 2023 - Development - bc02a7cc6)
# Solvated 5-mer peptide

units		real
atom_style	full

pair_style	lj/charmm/coul/long 8.0 10.0 10.0
bond_style      harmonic
angle_style     charmm
dihedral_style  charmm
improper_style  harmonic
kspace_style	pppm 0.0001

read_data	data.peptide
Reading data file ...
  orthogonal box = (36.840194 41.013691 29.768095) to (64.21156 68.385058 57.139462)
  2 by 2 by 2 MPI processor grid
  reading atoms ...
  2004 atoms
  reading velocities ...
  2004 velocities
  scanning bonds ...
  3 = max bonds/atom
  scanning angles ...
  6 = max angles/atom
  scanning dihedrals ...
  14 = max dihedrals/atom
  scanning impropers ...
  1 = max impropers/atom
  reading bonds ...
  1365 bonds
  reading angles ...
  786 angles
  reading dihedrals ...
  207 dihedrals
  reading impropers ...
  12 impropers
Finding 1-2 1-3 1-4 neighbors ...
  special bond factors lj:    0        0        0       
  special bond factors coul:  0        0        0       
     4 = max # of 1-2 neighbors
     7 = max # of 1-3 neighbors
    14 = max # of 1-4 neighbors
    18 = max # of special neighbors
  special bonds CPU = 0.001 seconds
  read_data CPU = 0.106 seconds

neighbor	2.0 bin
neigh_modify	delay 5

timestep	2.0

thermo_style	multi
thermo		50

fix		1 all nvt temp 275.0 275.0 100.0 tchain 1
fix		2 all shake 0.0001 10 100 b 4 6 8 10 12 14 18 a 31
Finding SHAKE clusters ...
      19 = # of size 2 clusters
       6 = # of size 3 clusters
       3 = # of size 4 clusters
     640 = # of frozen angles
  find clusters CPU = 0.011 seconds

group		peptide type <= 12
84 atoms in group peptide

#dump		1 peptide atom 10 dump.peptide

#dump		2 peptide image 25 image.*.jpg type type #		axes yes 0.8 0.02 view 60 -30 bond atom 0.5
#dump_modify	2 pad 3

#dump		3 peptide movie 25 movie.mpg type type #		axes yes 0.8 0.02 view 60 -30 bond atom 0.5
#dump_modify	3 pad 3

#compute		bnd all property/local btype batom1 batom2
#dump		2 peptide local 300 dump.bond index c_bnd[1] c_bnd[2] c_bnd[3]

run		300
PPPM initialization ...
  using 12-bit tables for long-range coulomb (src/kspace.cpp:342)
  G vector (1/distance) = 0.26872465
  grid = 15 15 15
  stencil order = 5
  estimated absolute RMS force accuracy = 0.022820853
  estimated relative force accuracy = 6.872432e-05
  using double precision FFTW3
  3d grid and FFT values/proc = 2744 512
Generated 91 of 91 mixed pair_coeff terms from arithmetic mixing rule
Neighbor list info ...
  update: every = 1 steps, delay = 5 steps, check = yes
  max neighbors/atom: 2000, page size: 100000
  master list distance cutoff = 12
  ghost atom cutoff = 12
  binsize = 6, bins = 5 5 5
  1 neighbor lists, perpetual/occasional/extra = 1 0 0
  (1) pair lj/charmm/coul/long, perpetual
      attributes: half, newton on
      pair build: half/bin/newton
      stencil: half/bin/3d
      bin: standard
SHAKE stats (type/ave/delta/count) on step 0
Bond:    4   1.111     1.44264e-05        9
Bond:    6   0.996998  7.26967e-06        6
Bond:    8   1.08      1.32536e-05        7
Bond:   10   1.111     1.22749e-05        8
Bond:   12   1.08      1.11767e-05        9
Bond:   14   0.96      0                  1
Bond:   18   0.957206  4.37979e-05     1280
Angle:  31   104.519   0.00396029       640
Per MPI rank memory allocation (min/avg/max) = 15.39 | 15.5 | 15.78 Mbytes
------------ Step              0 ----- CPU =            0 (sec) -------------
TotEng   =     -5237.4580 KinEng   =      1134.9186 Temp     =       282.1005 
PotEng   =     -6372.3766 E_bond   =        16.5572 E_angle  =        36.3726 
E_dihed  =        15.5190 E_impro  =         1.9426 E_vdwl   =       692.8945 
E_coul   =     26772.2646 E_long   =    -33907.9271 Press    =      -837.0112
------------ Step             50 ----- CPU =    0.4208029 (sec) -------------
TotEng   =     -5247.5537 KinEng   =      1132.4000 Temp     =       281.4745 
PotEng   =     -6379.9537 E_bond   =        12.2118 E_angle  =        31.7365 
E_dihed  =        18.8145 E_impro  =         2.3611 E_vdwl   =       658.1785 
E_coul   =     26804.4441 E_long   =    -33907.7003 Press    =     -1331.7946
SHAKE stats (type/ave/delta/count) on step 100
Bond:    4   1.111     7.80613e-07        9
Bond:    6   0.997     1.06181e-06        6
Bond:    8   1.08      6.20292e-07        7
Bond:   10   1.111     6.23284e-07        8
Bond:   12   1.08      2.67996e-07        9
Bond:   14   0.96      0                  1
Bond:   18   0.957201  5.3796e-06      1280
Angle:  31   104.52    0.000502278      640
------------ Step            100 ----- CPU =    0.7374481 (sec) -------------
TotEng   =     -5257.9979 KinEng   =      1078.0553 Temp     =       267.9663 
PotEng   =     -6336.0532 E_bond   =        14.4829 E_angle  =        43.4429 
E_dihed  =        15.2569 E_impro  =         2.3160 E_vdwl   =       708.3273 
E_coul   =     26786.6829 E_long   =    -33906.5621 Press    =      -648.6820
------------ Step            150 ----- CPU =     1.007344 (sec) -------------
TotEng   =     -5287.2798 KinEng   =      1098.6028 Temp     =       273.0737 
PotEng   =     -6385.8826 E_bond   =        17.4925 E_angle  =        32.8594 
E_dihed  =        15.1624 E_impro  =         1.6522 E_vdwl   =       736.9675 
E_coul   =     26717.2656 E_long   =    -33907.2821 Press    =      -333.1828
SHAKE stats (type/ave/delta/count) on step 200
Bond:    4   1.111     2.18699e-07        9
Bond:    6   0.997     1.50563e-07        6
Bond:    8   1.08      6.575e-08          7
Bond:   10   1.111     5.54187e-07        8
Bond:   12   1.08      1.9884e-07         9
Bond:   14   0.96      0                  1
Bond:   18   0.957201  3.59627e-06     1280
Angle:  31   104.52    0.000388335      640
------------ Step            200 ----- CPU =     1.267085 (sec) -------------
TotEng   =     -5308.4467 KinEng   =      1100.4874 Temp     =       273.5421 
PotEng   =     -6408.9341 E_bond   =        18.2714 E_angle  =        33.3040 
E_dihed  =        16.8150 E_impro  =         2.6051 E_vdwl   =       686.3221 
E_coul   =     26736.1319 E_long   =    -33902.3837 Press    =     -1470.3400
------------ Step            250 ----- CPU =     1.598944 (sec) -------------
TotEng   =     -5294.1566 KinEng   =      1071.0938 Temp     =       266.2359 
PotEng   =     -6365.2504 E_bond   =        14.2013 E_angle  =        39.1996 
E_dihed  =        19.4585 E_impro  =         3.1407 E_vdwl   =       753.4589 
E_coul   =     26714.0044 E_long   =    -33908.7139 Press    =      -189.6064
SHAKE stats (type/ave/delta/count) on step 300
Bond:    4   1.111     3.79043e-06        9
Bond:    6   0.997001  3.60521e-06        6
Bond:    8   1.08      2.09369e-06        7
Bond:   10   1.111     5.64841e-06        8
Bond:   12   1.08      2.10677e-06        9
Bond:   14   0.96      0                  1
Bond:   18   0.957202  7.72578e-06     1280
Angle:  31   104.52    0.000806203      640
------------ Step            300 ----- CPU =     1.852908 (sec) -------------
TotEng   =     -5251.3662 KinEng   =      1123.7712 Temp     =       279.3297 
PotEng   =     -6375.1374 E_bond   =        14.2206 E_angle  =        38.4274 
E_dihed  =        18.1674 E_impro  =         2.3734 E_vdwl   =       715.3474 
E_coul   =     26745.4054 E_long   =    -33909.0790 Press    =      -471.5905
Loop time of 1.85303 on 8 procs for 300 steps with 2004 atoms

Performance: 27.976 ns/day, 0.858 hours/ns, 161.897 timesteps/s, 324.441 katom-step/s
96.6% CPU use with 8 MPI tasks x no OpenMP threads

MPI task timing breakdown:
Section |  min time  |  avg time  |  max time  |%varavg| %total
---------------------------------------------------------------
Pair    | 0.85815    | 0.92623    | 0.99843    |   4.7 | 49.98
Bond    | 0.00039866 | 0.0037822  | 0.012565   |   7.0 |  0.20
Kspace  | 0.46374    | 0.54221    | 0.60444    |   5.9 | 29.26
Neigh   | 0.16142    | 0.16153    | 0.16165    |   0.0 |  8.72
Comm    | 0.1039     | 0.10828    | 0.11297    |   0.9 |  5.84
Output  | 0.00087269 | 0.0009404  | 0.0013165  |   0.0 |  0.05
Modify  | 0.094791   | 0.096812   | 0.098722   |   0.5 |  5.22
Other   |            | 0.01325    |            |       |  0.71

Nlocal:          250.5 ave         260 max         242 min
Histogram: 1 0 1 2 1 0 1 1 0 1
Nghost:        4941.25 ave        5008 max        4880 min
Histogram: 1 1 0 1 1 2 0 0 1 1
Neighs:        88502.5 ave       93276 max       84666 min
Histogram: 1 1 0 2 1 0 1 1 0 1

Total # of neighbors = 708020
Ave neighs/atom = 353.30339
Ave special neighs/atom = 2.3403194
Neighbor list builds = 26
Dangerous builds = 0

Total wall time: 0:00:02
