LAMMPS (29 Sep 2021)
# Axilrod-Teller-Muto potential example

variable        x index 1
variable        y index 1
variable        z index 1

variable        xx equal 10*$x
variable        xx equal 10*1
variable        yy equal 10*$y
variable        yy equal 10*1
variable        zz equal 10*$z
variable        zz equal 10*1

units           lj
atom_style      atomic

lattice         fcc 0.65
Lattice spacing in x,y,z = 1.8325207 1.8325207 1.8325207
region          box block 0 ${xx} 0 ${yy} 0 ${zz}
region          box block 0 10 0 ${yy} 0 ${zz}
region          box block 0 10 0 10 0 ${zz}
region          box block 0 10 0 10 0 10
create_box      1 box
Created orthogonal box = (0.0000000 0.0000000 0.0000000) to (18.325207 18.325207 18.325207)
  2 by 2 by 2 MPI processor grid
create_atoms    1 box
Created 4000 atoms
  using lattice units in orthogonal box = (0.0000000 0.0000000 0.0000000) to (18.325207 18.325207 18.325207)
  create_atoms CPU = 0.000 seconds

pair_style      hybrid/overlay lj/cut 4.5 atm 4.5 2.5
pair_coeff      * * lj/cut 1.0 1.0
pair_coeff      * * atm * 0.072

mass            * 1.0
velocity        all create 1.033 12345678 loop geom

fix             1 all nvt temp 1.033 1.033 0.05

timestep        0.002
thermo          5

run             25

CITE-CITE-CITE-CITE-CITE-CITE-CITE-CITE-CITE-CITE-CITE-CITE-CITE

Your simulation uses code contributions which should be cited:

- ATM package:

@Article{Lishchuk:2012:164501,
 author = {S. V. Lishchuk},
 title = {Role of three-body interactions in formation of bulk viscosity in liquid argon},
 journal = {J.~Chem.~Phys.},
 year =    2012,
 volume =  136,
 pages =   {164501}
}

CITE-CITE-CITE-CITE-CITE-CITE-CITE-CITE-CITE-CITE-CITE-CITE-CITE

Neighbor list info ...
  update every 1 steps, delay 10 steps, check yes
  max neighbors/atom: 2000, page size: 100000
  master list distance cutoff = 4.8
  ghost atom cutoff = 4.8
  binsize = 2.4, bins = 8 8 8
  2 neighbor lists, perpetual/occasional/extra = 2 0 0
  (1) pair lj/cut, perpetual, half/full from (2)
      attributes: half, newton on
      pair build: halffull/newton
      stencil: none
      bin: none
  (2) pair atm, perpetual
      attributes: full, newton on
      pair build: full/bin/atomonly
      stencil: full/bin/3d
      bin: standard
Per MPI rank memory allocation (min/avg/max) = 4.278 | 4.278 | 4.278 Mbytes
Step Temp E_pair E_mol TotEng Press 
       0        1.033   -4.8404387            0    -3.291326   -4.1332095 
       5    1.0337247   -4.8402263            0    -3.290027   -4.1207962 
      10    1.0355935   -4.8425889            0   -3.2895869   -4.0870158 
      15    1.0376519     -4.84599            0   -3.2899013   -4.0278711 
      20    1.0382257   -4.8478854            0   -3.2909361   -3.9368052 
      25    1.0347886     -4.84473            0   -3.2929351   -3.8044469 
Loop time of 1.45043 on 8 procs for 25 steps with 4000 atoms

Performance: 2978.436 tau/day, 17.236 timesteps/s
99.8% CPU use with 8 MPI tasks x no OpenMP threads

MPI task timing breakdown:
Section |  min time  |  avg time  |  max time  |%varavg| %total
---------------------------------------------------------------
Pair    | 1.4229     | 1.4358     | 1.4456     |   0.6 | 98.99
Neigh   | 0          | 0          | 0          |   0.0 |  0.00
Comm    | 0.0039514  | 0.013825   | 0.026626   |   6.3 |  0.95
Output  | 7.611e-05  | 8.1201e-05 | 0.00010447 |   0.0 |  0.01
Modify  | 0.00023379 | 0.00024788 | 0.00025666 |   0.0 |  0.02
Other   |            | 0.0005008  |            |       |  0.03

Nlocal:        500.000 ave         500 max         500 min
Histogram: 8 0 0 0 0 0 0 0 0 0
Nghost:        4130.00 ave        4130 max        4130 min
Histogram: 8 0 0 0 0 0 0 0 0 0
Neighs:        80000.0 ave       80000 max       80000 min
Histogram: 8 0 0 0 0 0 0 0 0 0
FullNghs:      160000.0 ave      160000 max      160000 min
Histogram: 8 0 0 0 0 0 0 0 0 0

Total # of neighbors = 1280000
Ave neighs/atom = 320.00000
Neighbor list builds = 0
Dangerous builds = 0
Total wall time: 0:00:01
