LAMMPS (4 Jan 2019)
# REAX potential for Nitroamines system
# .....

dimension      3
boundary       p p p
units		real

atom_style	charge
read_data	data.FC
  orthogonal box = (-82.62 -79.5011 -50) to (82.62 79.5011 50)
  2 by 2 by 2 MPI processor grid
  reading atoms ...
  17280 atoms

pair_style	reax/c NULL
pair_coeff	* * ffield.reax.FC C F
Reading potential file ffield.reax.FC with DATE: 2013-06-28
neighbor	2. bin
neigh_modify	every 10 delay 0 check no
fix             2 all qeq/reax 1 0.0 10.0 1e-6 reax/c

# should equilibrate much longer in practice

fix		1 all npt temp 100.0 100.0 10.0 iso 1.0 1. 2000.0
timestep        0.2
thermo_style    custom step temp epair etotal press
thermo          1
dump            4 all xyz 5000 dumpnpt.xyz
run             10
Neighbor list info ...
  update every 10 steps, delay 0 steps, check no
  max neighbors/atom: 2000, page size: 100000
  master list distance cutoff = 12
  ghost atom cutoff = 12
  binsize = 6, bins = 28 27 17
  2 neighbor lists, perpetual/occasional/extra = 2 0 0
  (1) pair reax/c, perpetual
      attributes: half, newton off, ghost
      pair build: half/bin/newtoff/ghost
      stencil: half/ghost/bin/3d/newtoff
      bin: standard
  (2) fix qeq/reax, perpetual, copy from (1)
      attributes: half, newton off, ghost
      pair build: copy
      stencil: none
      bin: none
Per MPI rank memory allocation (min/avg/max) = 143.7 | 146.2 | 148.7 Mbytes
Step Temp E_pair TotEng Press 
       0            0   -808525.04   -808525.04    58194.694 
       1    4.9935726   -808803.88   -808546.69    58205.825 
       2     19.98696   -809640.53    -808611.1    58239.155 
       3    45.012616    -811035.3    -808716.9    58294.499 
       4    80.103613   -812988.58   -808862.81    58371.548 
       5    125.26228   -815500.68      -809049    58469.872 
       6     180.4316   -818571.56   -809278.36    58588.936 
       7    245.47913   -822200.73   -809557.22    58728.144 
       8    320.17692   -826387.19   -809896.34    58886.879 
       9    404.17073   -831129.38    -810312.4    59064.554 
      10    497.02486   -836425.06   -810825.59    59260.717 
Loop time of 4.22827 on 8 procs for 10 steps with 17280 atoms

Performance: 0.041 ns/day, 587.260 hours/ns, 2.365 timesteps/s
98.8% CPU use with 8 MPI tasks x no OpenMP threads

MPI task timing breakdown:
Section |  min time  |  avg time  |  max time  |%varavg| %total
---------------------------------------------------------------
Pair    | 1.7002     | 2.6611     | 3.6937     |  56.7 | 62.94
Neigh   | 0.021244   | 0.021692   | 0.021819   |   0.1 |  0.51
Comm    | 0.040494   | 1.0728     | 2.0335     |  89.4 | 25.37
Output  | 0.00043295 | 0.00047239 | 0.00057753 |   0.0 |  0.01
Modify  | 0.4717     | 0.47207    | 0.47227    |   0.0 | 11.16
Other   |            | 0.0001836  |            |       |  0.00

Nlocal:    2160 ave 2160 max 2160 min
Histogram: 8 0 0 0 0 0 0 0 0 0
Nghost:    5016 ave 5016 max 5016 min
Histogram: 8 0 0 0 0 0 0 0 0 0
Neighs:    480164 ave 480164 max 480164 min
Histogram: 8 0 0 0 0 0 0 0 0 0

Total # of neighbors = 3841312
Ave neighs/atom = 222.298
Neighbor list builds = 1
Dangerous builds not checked

unfix           1

fix             1  all nvt temp 100.0 100.0 100.0
thermo_style    custom step temp epair etotal press
timestep	0.2

#dump		5 all xyz 5000 dumpnvt.xyz
#dump            6 all custom 5000 dumpidtype.dat id type x y z

run		10
Per MPI rank memory allocation (min/avg/max) = 146.8 | 146.8 | 146.9 Mbytes
Step Temp E_pair TotEng Press 
      10    497.02486   -836425.06   -810825.59    59260.717 
      11     601.6514   -841814.09   -810825.78    59489.425 
      12    716.37597    -847724.6   -810827.35    59738.298 
      13    841.27959   -854161.62   -810831.16    60008.164 
      14     976.4666   -861131.68   -810838.36    60300.364 
      15    1122.0668   -868642.96   -810850.45    60616.793 
      16    1278.2373   -876705.43   -810869.28    60959.942 
      17    1445.1655   -885331.03   -810897.18    61332.932 
      18     1623.072   -894533.91   -810936.92    61739.541 
      19    1812.1864   -904337.86   -811000.45    62200.561 
      20    2011.5898   -915379.05   -811771.28     63361.15 
Loop time of 3.4367 on 8 procs for 10 steps with 17280 atoms

Performance: 0.050 ns/day, 477.319 hours/ns, 2.910 timesteps/s
99.3% CPU use with 8 MPI tasks x no OpenMP threads

MPI task timing breakdown:
Section |  min time  |  avg time  |  max time  |%varavg| %total
---------------------------------------------------------------
Pair    | 2.4793     | 2.7444     | 3.0159     |  12.5 | 79.86
Neigh   | 0.019369   | 0.019582   | 0.019892   |   0.1 |  0.57
Comm    | 0.023863   | 0.29542    | 0.56055    |  38.1 |  8.60
Output  | 0.0004182  | 0.00043419 | 0.0005281  |   0.0 |  0.01
Modify  | 0.37654    | 0.37672    | 0.37685    |   0.0 | 10.96
Other   |            | 0.000127   |            |       |  0.00

Nlocal:    2160 ave 2160 max 2160 min
Histogram: 8 0 0 0 0 0 0 0 0 0
Nghost:    5016 ave 5016 max 5016 min
Histogram: 8 0 0 0 0 0 0 0 0 0
Neighs:    480164 ave 480164 max 480164 min
Histogram: 8 0 0 0 0 0 0 0 0 0

Total # of neighbors = 3841312
Ave neighs/atom = 222.298
Neighbor list builds = 1
Dangerous builds not checked

Please see the log.cite file for references relevant to this simulation

Total wall time: 0:00:08
