LAMMPS (4 Jan 2019)
# 3D simple cubic lattice simulation
dimension   2
boundary    p f p

units		   lj
atom_style	bond
atom_modify sort 0 1.
bond_style  harmonic
pair_style  none
comm_modify cutoff 2.0

# geometry
read_data	data.pos
  orthogonal box = (0 0 0) to (64 1 1)
  8 by 1 by 1 MPI processor grid
  reading atoms ...
  64 atoms
  scanning bonds ...
  2 = max bonds/atom
  reading bonds ...
  64 bonds
  2 = max # of 1-2 neighbors
  2 = max # of 1-3 neighbors
  4 = max # of 1-4 neighbors
  6 = max # of special neighbors

#
neighbor 1.0 nsq
neigh_modify  delay 0 check no

#Langevin random seed
variable r equal 571101

#Langevin Temperature
variable t equal 0.005

# Langevin Damping variable
variable d equal 0.5

# Create velocities and equilibrate
compute   MyTemp all temp/partial 1 0 0
velocity  all create $t 28711 mom yes rot yes dist gaussian temp MyTemp
velocity  all create 0.005 28711 mom yes rot yes dist gaussian temp MyTemp
velocity  all set NULL 0.0 0.0 units box
#
fix        1 all langevin $t $t $d $r
fix        1 all langevin 0.005 $t $d $r
fix        1 all langevin 0.005 0.005 $d $r
fix        1 all langevin 0.005 0.005 0.5 $r
fix        1 all langevin 0.005 0.005 0.5 571101
fix_modify 1 temp MyTemp
fix        2 all setforce NULL 0. 0.
fix        3 all nve
fix        4 all phonon 10 50000 500000 map.in phonon sysdim 1
fix_modify 4 temp MyTemp

#                    1    2    3  4
thermo_style  custom step temp pe etotal
thermo_modify temp MyTemp
thermo   100

#
run 		 20000
Neighbor list info ...
  update every 1 steps, delay 0 steps, check no
  max neighbors/atom: 2000, page size: 100000
  master list distance cutoff = 0
  ghost atom cutoff = 2
  0 neighbor lists, perpetual/occasional/extra = 0 0 0
Per MPI rank memory allocation (min/avg/max) = 3.233 | 3.233 | 3.233 Mbytes
Step Temp PotEng TotEng 
       0        0.005            0 0.0024609375 
     100 0.0040317698 0.00057611306 0.0025604997 
     200 0.0039466978 0.0014798375 0.0034223528 
     300 0.0049810321 0.0015344278 0.0039860295 
     400 0.0037348908 0.0016782267 0.0035164933 
     500 0.0037881177 0.0015677155 0.0034321796 
     600 0.0041689301 0.0017321518 0.0037840471 
     700 0.0058760646 0.0016058402 0.0044979658 
     800 0.0047107527 0.0015931496 0.0039117232 
     900 0.0043877843 0.0019178716 0.0040774842 
    1000 0.0025890269 0.0021471924 0.0034214791 
    1100 0.0038592006 0.0022346004 0.0041340507 
    1200  0.004387057 0.0024507654   0.00461002 
    1300 0.0048111907 0.0023009732 0.0046689811 
    1400 0.0040750613 0.0019856631 0.0039913573 
    1500 0.0054785426 0.0018574075 0.0045538776 
    1600 0.0042296974 0.0017625075 0.0038443117 
    1700 0.0053368425 0.0021909162 0.0048176434 
    1800 0.0047155011  0.002485385 0.0048062957 
    1900 0.0058375543 0.0027155715 0.0055887428 
    2000 0.0051879408 0.0028862341 0.0054396737 
    2100 0.0046916962 0.0025370381 0.0048462323 
    2200 0.0033521181 0.0023402854  0.003990156 
    2300 0.0049801639 0.0018232806  0.004274455 
    2400 0.0050811427 0.0018368938 0.0043377687 
    2500 0.0042478497 0.0019609695  0.004051708 
    2600 0.0062970026 0.0022437587 0.0053430646 
    2700 0.0059960596 0.0025439406 0.0054951262 
    2800 0.0063446105 0.0025248024 0.0056475404 
    2900 0.0060654889  0.002105717 0.0050910749 
    3000 0.0040624598 0.0022728422 0.0042723341 
    3100 0.0050390187 0.0025647466 0.0050448886 
    3200  0.005602116  0.002787116 0.0055444075 
    3300 0.0042929653  0.002781784 0.0048947278 
    3400 0.0066134583 0.0029329302 0.0061879917 
    3500 0.0063468439 0.0028931967 0.0060170339 
    3600  0.006017959 0.0027217173 0.0056836815 
    3700 0.0053175638 0.0025847578 0.0052019962 
    3800 0.0052680024 0.0022124533 0.0048052983 
    3900  0.005470927 0.0027146952 0.0054074171 
    4000 0.0056387931 0.0027104052 0.0054857487 
    4100 0.0045195513 0.0022641002 0.0044885669 
    4200 0.0030188033 0.0019143621 0.0034001793 
    4300 0.0064826856 0.0017180483 0.0049087451 
    4400 0.0037430095 0.0027018963 0.0045441588 
    4500 0.0046063907 0.0028447641  0.005111972 
    4600 0.0054743512 0.0021702013 0.0048646086 
    4700  0.004028283  0.001948861 0.0039315316 
    4800  0.005078026 0.0020112375 0.0045105784 
    4900 0.0044808181 0.0021876377 0.0043930404 
    5000 0.0054682534 0.0024186264 0.0051100324 
    5100 0.0039524207 0.0024300354 0.0043753675 
    5200 0.0054651391 0.0023352584 0.0050251315 
    5300 0.0042802074 0.0023567677 0.0044634323 
    5400 0.0052282133 0.0021414153 0.0047146765 
    5500 0.0051670461 0.0019601609 0.0045033165 
    5600 0.0042548158 0.0021833764 0.0042775435 
    5700 0.0065919467 0.0023731587 0.0056176325 
    5800 0.0056629728 0.0021464685 0.0049337129 
    5900 0.0048028421 0.0020022955 0.0043661943 
    6000 0.0040232417 0.0018899295 0.0038701188 
    6100 0.0066009682 0.0018757268 0.0051246408 
    6200 0.0038893329  0.002165131  0.004079412 
    6300 0.0045644486 0.0023343887 0.0045809533 
    6400 0.0054516489 0.0022265175  0.004909751 
    6500 0.0054579579  0.001923252 0.0046095906 
    6600  0.005248124 0.0022589614 0.0048420224 
    6700 0.0073402378 0.0025768098  0.006189583 
    6800 0.0062693704 0.0029554422 0.0060411479 
    6900 0.0059127809 0.0023761519 0.0052863487 
    7000 0.0043903813 0.0018805407 0.0040414315 
    7100 0.0064692049 0.0014238462  0.004607908 
    7200 0.0067438425 0.0016114404 0.0049306754 
    7300 0.0039799918 0.0020904108 0.0040493131 
    7400 0.0077346428 0.0019930186 0.0057999131 
    7500 0.0058797138 0.0015593511 0.0044532728 
    7600 0.0040191429 0.0018672418 0.0038454137 
    7700 0.0039342019 0.0017630444 0.0036994093 
    7800  0.003693069 0.0018600394 0.0036777218 
    7900 0.0045467714 0.0018814723 0.0041193363 
    8000 0.0071366715 0.0019307057 0.0054432862 
    8100 0.0053134895 0.0019695553 0.0045847884 
    8200 0.0039451994 0.0025648908 0.0045066686 
    8300 0.0060010431 0.0023961043 0.0053497427 
    8400 0.0061549258 0.0023176221 0.0053469997 
    8500 0.0042619034 0.0023784736 0.0044761292 
    8600 0.0049493025 0.0025288018 0.0049647866 
    8700 0.0059442009 0.0025678062 0.0054934676 
    8800 0.0059890199 0.0028485272 0.0057962479 
    8900 0.0058196199 0.0029027136 0.0057670578 
    9000 0.0039073692 0.0028440115 0.0047671698 
    9100 0.0055731882 0.0024231007 0.0051661543 
    9200  0.006115157 0.0022834159 0.0052932197 
    9300 0.0037989013  0.002231824 0.0041015957 
    9400  0.005020721 0.0020809508 0.0045520869 
    9500 0.0037841915 0.0021453576 0.0040078893 
    9600 0.0064431036 0.0018965958 0.0050678108 
    9700 0.0062930554 0.0022137654 0.0053111286 
    9800   0.00346704 0.0021389496 0.0038453833 
    9900 0.0056712706 0.0017413773 0.0045327057 
   10000  0.004721313 0.0022513152 0.0045750864 
   10100 0.0050400459 0.0022557677 0.0047364153 
   10200  0.006386415 0.0018911503 0.0050344639 
   10300 0.0045078219 0.0028018432 0.0050205368 
   10400 0.0048063429 0.0021738471  0.004539469 
   10500   0.00537903 0.0018457553 0.0044932467 
   10600 0.0041890109 0.0019266016 0.0039883804 
   10700  0.005443143 0.0020939606 0.0047730075 
   10800 0.0050528278 0.0020492432 0.0045361819 
   10900  0.005769596 0.0016270627 0.0044667858 
   11000 0.0056733394 0.0017745252  0.004566872 
   11100 0.0052934221 0.0019894313 0.0045947875 
   11200 0.0044870893 0.0018164736 0.0040249629 
   11300 0.0053161354 0.0017951342 0.0044116697 
   11400  0.005259404 0.0017022739 0.0042908868 
   11500 0.0042197805  0.002096343 0.0041732662 
   11600 0.0050229323 0.0022651745  0.004737399 
   11700 0.0052706698 0.0022179931 0.0048121508 
   11800  0.006160635 0.0021756981 0.0052078856 
   11900 0.0035528892 0.0024710812 0.0042197688 
   12000 0.0058424856 0.0026953604 0.0055709588 
   12100 0.0061898245 0.0025188692 0.0055654234 
   12200  0.006831648  0.002170524 0.0055329757 
   12300 0.0035095309  0.002067062 0.0037944092 
   12400 0.0044682302 0.0024620271 0.0046612341 
   12500 0.0048661249 0.0027292712 0.0051243171 
   12600 0.0056244803 0.0024880727 0.0052563715 
   12700 0.0054933101 0.0018814342 0.0045851727 
   12800 0.0055651513 0.0019585684 0.0046976664 
   12900 0.0032487726 0.0024590263 0.0040580316 
   13000  0.006542736 0.0022764878 0.0054967407 
   13100 0.0046951427 0.0022041085 0.0045149991 
   13200 0.0064950854 0.0016414374 0.0048382373 
   13300 0.0042674494 0.0018852606 0.0039856459 
   13400 0.0053467575 0.0021467875 0.0047783947 
   13500 0.0054076368 0.0022546674 0.0049162386 
   13600 0.0047325869 0.0028583272 0.0051876473 
   13700 0.0049967211 0.0022623977 0.0047217214 
   13800 0.0060452058 0.0017945719 0.0047699467 
   13900 0.0053914404 0.0019985338 0.0046521334 
   14000 0.0038540387 0.0025482084 0.0044451181 
   14100 0.0048951011 0.0026749967 0.0050843043 
   14200 0.0047756809 0.0019877947 0.0043383252 
   14300 0.0051096077 0.0018631064 0.0043779914 
   14400 0.0057812762 0.0017694286 0.0046149005 
   14500 0.0056121936 0.0017261963 0.0044884478 
   14600 0.0058210314  0.001989082 0.0048541209 
   14700  0.005186483 0.0025778738 0.0051305959 
   14800 0.0041351683 0.0023327863 0.0043680644 
   14900  0.004305324 0.0024104247 0.0045294514 
   15000 0.0054904198  0.002323945 0.0050262609 
   15100 0.0055249952 0.0023875783 0.0051069119 
   15200 0.0046056582 0.0022511493 0.0045179967 
   15300 0.0069335372 0.0022229056 0.0056355059 
   15400 0.0061379998 0.0020399043  0.005060951 
   15500 0.0040218515 0.0024960325 0.0044755375 
   15600 0.0044245533 0.0023778495 0.0045555594 
   15700 0.0054357019  0.002334036 0.0050094205 
   15800 0.0050325279 0.0022926191 0.0047695664 
   15900 0.0068350459 0.0017613576 0.0051254818 
   16000 0.0043537231 0.0026397702 0.0047826183 
   16100 0.0062948757 0.0026681887 0.0057664479 
   16200 0.0048455857  0.002381603 0.0047665397 
   16300 0.0056432303 0.0023998654 0.0051773928 
   16400 0.0044684105 0.0027800699 0.0049793657 
   16500 0.0059661504 0.0029200866 0.0058565513 
   16600 0.0069573771 0.0026528611 0.0060771951 
   16700 0.0054694778 0.0032303884  0.005922397 
   16800 0.0047425987 0.0032413648 0.0055756127 
   16900 0.0045441118 0.0029243397 0.0051608947 
   17000 0.0054294546 0.0026243849 0.0052966946 
   17100 0.0038026024 0.0021776854 0.0040492788 
   17200 0.0056089724 0.0015755028 0.0043361689 
   17300  0.005163097 0.0019157689 0.0044569807 
   17400 0.0041711402 0.0022300707 0.0042830538 
   17500 0.0046863457 0.0018701361 0.0041766968 
   17600 0.0038006416  0.001795451 0.0036660793 
   17700 0.0062488598 0.0022363257 0.0053119364 
   17800 0.0063191541 0.0027846283  0.005894837 
   17900 0.0058737541  0.002700107 0.0055910954 
   18000 0.0057721618 0.0024534552 0.0052944411 
   18100 0.0061951884 0.0028344746 0.0058836689 
   18200 0.0048230864 0.0033880583 0.0057619211 
   18300 0.0044808561 0.0034652449 0.0056706662 
   18400 0.0075139088 0.0027807761  0.006479028 
   18500  0.005555126 0.0024207514  0.005154915 
   18600 0.0056004285 0.0022551893 0.0050116502 
   18700 0.0053077569  0.002349624 0.0049620356 
   18800 0.0055811689 0.0024244994 0.0051714809 
   18900 0.0043818222 0.0025569507 0.0047136288 
   19000 0.0040143327 0.0024028413 0.0043786457 
   19100 0.0070578223 0.0021099546 0.0055837265 
   19200 0.0037928503 0.0023082214 0.0041750149 
   19300 0.0048818228 0.0022283322 0.0046311044 
   19400 0.0037943219  0.002917794 0.0047853118 
   19500 0.0042177805 0.0028149483 0.0048908871 
   19600 0.0043524695 0.0025860053 0.0047282364 
   19700 0.0058013866 0.0027400475 0.0055954175 
   19800 0.0047681786 0.0034511924 0.0057980303 
   19900 0.0055118425 0.0030527188 0.0057655788 
   20000 0.0066763605 0.0027926431 0.0060786643 
Loop time of 0.390598 on 8 procs for 20000 steps with 64 atoms

Performance: 22119917.358 tau/day, 51203.512 timesteps/s
99.9% CPU use with 8 MPI tasks x no OpenMP threads

MPI task timing breakdown:
Section |  min time  |  avg time  |  max time  |%varavg| %total
---------------------------------------------------------------
Pair    | 0          | 0          | 0          |   0.0 |  0.00
Bond    | 0.0041523  | 0.004827   | 0.0057615  |   0.8 |  1.24
Neigh   | 0.0583     | 0.064393   | 0.070362   |   1.4 | 16.49
Comm    | 0.22944    | 0.23781    | 0.24809    |   1.3 | 60.88
Output  | 0.0020355  | 0.0021165  | 0.0025374  |   0.3 |  0.54
Modify  | 0.073112   | 0.07647    | 0.079733   |   0.9 | 19.58
Other   |            | 0.004977   |            |       |  1.27

Nlocal:    8 ave 9 max 7 min
Histogram: 2 0 0 0 0 4 0 0 0 2
Nghost:    3.75 ave 5 max 2 min
Histogram: 1 0 0 1 0 0 5 0 0 1
Neighs:    0 ave 0 max 0 min
Histogram: 8 0 0 0 0 0 0 0 0 0

Total # of neighbors = 0
Ave neighs/atom = 0
Ave special neighs/atom = 6
Neighbor list builds = 20000
Dangerous builds not checked

Please see the log.cite file for references relevant to this simulation

Total wall time: 0:00:00
