LAMMPS (4 Jan 2019)
# small Peridynamic cylinder hit by projectile

units           si
boundary        s s s
atom_style      peri
atom_modify     map array
neighbor        0.0010 bin

# small target

lattice         sc 0.0005
Lattice spacing in x,y,z = 0.0005 0.0005 0.0005
region          target cylinder y 0.0 0.0 0.0050 -0.0050 0.0 units box
create_box      1 target
Created orthogonal box = (-0.005 -0.005 -0.005) to (0.005 0 0.005)
  2 by 1 by 4 MPI processor grid
create_atoms    1 region target
Created 3487 atoms
  Time spent = 0.00128664 secs

pair_style      peri/eps
pair_coeff      * * 14.9e9 14.9e9 0.0015001 0.0005 0.25 10.0e8
set             group all density 2200
  3487 settings made for density
set             group all volume 1.25e-10
  3487 settings made for volume
velocity        all set 0.0 0.0 0.0 sum no units box
fix             1 all nve

# spherical indenter to shatter target

variable        y0 equal 0.00155
variable        vy equal -100
variable        y equal "v_y0 + step*dt*v_vy"

fix             2 all indent 1e17 sphere 0.0000 v_y 0.0000 0.0015 units box

compute         1 all damage/atom
timestep        1.0e-7
thermo          100

#dump            1 all custom 100 dump.peri id type x y z c_1

#dump           2 all image 50 image.*.jpg type type #               axes yes 0.8 0.02 view 80 -30 adiam 0.0006
#dump_modify    2 pad 4

#dump           3 all movie 50 movie.mpg type type #               axes yes 0.8 0.02 view 80 -30 adiam 0.0006
#dump_modify    3 pad 4

run             1000
Neighbor list info ...
  update every 1 steps, delay 10 steps, check yes
  max neighbors/atom: 2000, page size: 100000
  master list distance cutoff = 0.0025001
  ghost atom cutoff = 0.0025001
  binsize = 0.00125005, bins = 9 5 9
  2 neighbor lists, perpetual/occasional/extra = 1 1 0
  (1) pair peri/eps, perpetual
      attributes: half, newton on
      pair build: half/bin/atomonly/newton
      stencil: half/bin/3d/newton
      bin: standard
  (2) fix PERI_NEIGH, occasional
      attributes: full, newton on
      pair build: full/bin/atomonly
      stencil: full/bin/3d
      bin: standard
Peridynamic bonds:
  total # of bonds = 335966
  bonds/atom = 96.3482
Per MPI rank memory allocation (min/avg/max) = 43.56 | 44.07 | 44.77 Mbytes
Step Temp E_pair E_mol TotEng Press Volume 
       0            0            0            0            0            0 5.0030006e-07 
     100 8.3466308e+24    247103.03            0    849681.45 8.0295601e+11 5.0030006e-07 
     200 1.1784921e+27    1098605.6            0     86178912 1.0246967e+14 5.5353162e-07 
     300 2.6263212e+27    4118581.6            0 1.9372377e+08 1.662415e+14 7.6036043e-07 
     400 3.3085888e+27    9397203.3            0 2.4825816e+08 1.561692e+14 1.0196674e-06 
     500 3.9151799e+27     18408722            0 3.0106204e+08 1.5298661e+14 1.2317127e-06 
     600 6.2936721e+27     11346143            0 4.6571282e+08 1.9645007e+14 1.5419242e-06 
     700 1.2721597e+28    3830223.2            0 9.2225588e+08 3.0235577e+14 2.0250441e-06 
     800 1.3190107e+28    2831668.4            0 9.5508099e+08 2.4853932e+14 2.5542553e-06 
     900 1.3166045e+28    1911860.9            0 9.5242409e+08 1.9729649e+14 3.2117896e-06 
    1000 1.3159579e+28    1995756.2            0 9.5204113e+08 1.6722164e+14 3.7875695e-06 
Loop time of 7.26225 on 8 procs for 1000 steps with 3487 atoms

99.8% CPU use with 8 MPI tasks x no OpenMP threads

MPI task timing breakdown:
Section |  min time  |  avg time  |  max time  |%varavg| %total
---------------------------------------------------------------
Pair    | 4.3779     | 5.4529     | 6.9637     |  42.9 | 75.09
Neigh   | 0.017373   | 0.06023    | 0.090655   |  11.5 |  0.83
Comm    | 0.19082    | 1.7199     | 2.8349     |  78.2 | 23.68
Output  | 0.0003294  | 0.00042013 | 0.00058621 |   0.0 |  0.01
Modify  | 0.013895   | 0.017262   | 0.020555   |   2.4 |  0.24
Other   |            | 0.01147    |            |       |  0.16

Nlocal:    435.875 ave 591 max 287 min
Histogram: 2 2 0 0 0 0 0 0 2 2
Nghost:    1346.12 ave 1686 max 1005 min
Histogram: 4 0 0 0 0 0 0 0 0 4
Neighs:    71147.1 ave 100882 max 25482 min
Histogram: 2 0 0 1 1 0 0 0 0 4
FullNghs:  151134 ave 249271 max 80046 min
Histogram: 4 0 0 0 0 1 0 1 1 1

Total # of neighbors = 1209076
Ave neighs/atom = 346.738
Neighbor list builds = 40
Dangerous builds = 0

Please see the log.cite file for references relevant to this simulation

Total wall time: 0:00:07
