LAMMPS (4 Jan 2019)
# Compute elastic constant tensor for a crystal
#
# Written by Aidan Thompson (Sandia, athomps@sandia.gov)
#
#  This script uses the following three include files.
#
#   init.mod      (must be modified for different crystal structures)
# 	       	  Define units, deformation parameters and initial
#		  configuration of the atoms and simulation cell.
#
#
#   potential.mod    (must be modified for different pair styles)
# 		     Define pair style and other attributes
#		     not stored in restart file
#
#
#   displace.mod    (displace.mod should not need to be modified)
# 		    Perform positive and negative box displacements
# 		    in direction ${dir} and size ${up}.
# 		    It uses the resultant changes
#		    in stress to compute one
# 		    row of the elastic stiffness tensor
#
#		    Inputs variables:
#		    	   dir = the Voigt deformation component
#		    		    (1,2,3,4,5,6)
#		    Global constants:
#       	    	   up = the deformation magnitude (strain units)
#       		   cfac = conversion from LAMMPS pressure units to
#               	   output units for elastic constants
#
#
#  To run this on a different system, it should only be necessary to
#  modify the files init.mod and potential.mod. In order to calculate
#  the elastic constants correctly, care must be taken to specify
#  the correct units in init.mod (units, cfac and cunits). It is also
#  important to verify that the minimization of energy w.r.t atom
#  positions in the deformed cell is fully converged.
#  One indication of this is that the elastic constants are insensitive
#  to the choice of the variable ${up} in init.mod. Another is to check
#  the final max and two-norm forces reported in the log file. If you know
#  that minimization is not required, you can set maxiter = 0.0 in
#  init.mod.
#
#  There are two alternate versions of displace.mod provided.
#  They are displace_restart.mod and displace_reverse.mod.
#  The former resets the box using a restart file while
#  the latter reverses the deformation. Copy whichever
#  one you like best to displace.mod.
#

include init.mod
# NOTE: This script can be modified for different atomic structures,
# units, etc. See in.elastic for more info.
#

# Define the finite deformation size. Try several values of this
# variable to verify that results do not depend on it.
variable up equal 1.0e-6

# Define the amount of random jiggle for atoms
# This prevents atoms from staying on saddle points
variable atomjiggle equal 1.0e-5

# Uncomment one of these blocks, depending on what units
# you are using in LAMMPS and for output

# metal units, elastic constants in eV/A^3
#units		metal
#variable cfac equal 6.2414e-7
#variable cunits string eV/A^3

# metal units, elastic constants in GPa
units		metal
variable cfac equal 1.0e-4
variable cunits string GPa

# real units, elastic constants in GPa
#units		real
#variable cfac equal 1.01325e-4
#variable cunits string GPa

# Define minimization parameters
variable etol equal 0.0
variable ftol equal 1.0e-10
variable maxiter equal 100
variable maxeval equal 1000
variable dmax equal 1.0e-2

# generate the box and atom positions using a diamond lattice
variable a equal 5.43

boundary	p p p

lattice         diamond $a
lattice         diamond 5.43
Lattice spacing in x,y,z = 5.43 5.43 5.43
region		box prism 0 2.0 0 3.0 0 4.0 0.0 0.0 0.0
create_box	1 box
Created triclinic box = (0 0 0) to (10.86 16.29 21.72) with tilt (0 0 0)
  1 by 2 by 4 MPI processor grid
create_atoms	1 box
Created 192 atoms
  Time spent = 0.000887981 secs

# Need to set mass to something, just to satisfy LAMMPS
mass 1 1.0e-20

include potential.mod
# NOTE: This script can be modified for different pair styles
# See in.elastic for more info.

# Choose potential
pair_style	sw
pair_coeff * * Si.sw Si
Reading potential file Si.sw with DATE: 2007-06-11

# Setup neighbor style
neighbor 1.0 nsq
neigh_modify once no every 1 delay 0 check yes

# Setup minimization style
min_style	     cg
min_modify	     dmax ${dmax} line quadratic
min_modify	     dmax 0.01 line quadratic

# Setup output
thermo		1
thermo_style custom step temp pe press pxx pyy pzz pxy pxz pyz lx ly lz vol
thermo_modify norm no

# Compute initial state
fix 3 all box/relax  aniso 0.0
minimize ${etol} ${ftol} ${maxiter} ${maxeval}
minimize 0 ${ftol} ${maxiter} ${maxeval}
minimize 0 1e-10 ${maxiter} ${maxeval}
minimize 0 1e-10 100 ${maxeval}
minimize 0 1e-10 100 1000
Neighbor list info ...
  update every 1 steps, delay 0 steps, check yes
  max neighbors/atom: 2000, page size: 100000
  master list distance cutoff = 4.77118
  ghost atom cutoff = 4.77118
  1 neighbor lists, perpetual/occasional/extra = 1 0 0
  (1) pair sw, perpetual
      attributes: full, newton on
      pair build: full/nsq
      stencil: none
      bin: none
Per MPI rank memory allocation (min/avg/max) = 4.177 | 4.177 | 4.177 Mbytes
Step Temp PotEng Press Pxx Pyy Pzz Pxy Pxz Pyz Lx Ly Lz Volume 
       0            0   -832.62686    532.56802    532.56802    532.56802    532.56802 1.1063888e-11 -1.1474733e-11 8.1127461e-12        10.86        16.29        21.72    3842.4722 
       1            0   -832.62714    227.98084    227.98084    227.98084    227.98084 2.6510223e-10 -9.3796461e-11 5.099605e-11    10.861086    16.291629    21.722172     3843.625 
       2            0    -832.6272 -0.016514738 -0.016514738 -0.016514738 -0.016514738 -3.4775352e-11 1.1352124e-10 -5.5468648e-11      10.8619    16.292849    21.723799    3844.4889 
       3            0    -832.6272 -1.8901558e-06 -1.8901721e-06 -1.8901215e-06 -1.8901738e-06 1.6343946e-10 4.0288982e-11 -3.2690554e-10      10.8619    16.292849    21.723799    3844.4888 
       4            0    -832.6272 -2.6847169e-11 -8.4964617e-12 -7.3794623e-11 1.749576e-12 5.8869285e-10 8.2830715e-11 -1.9810319e-10      10.8619    16.292849    21.723799    3844.4888 
Loop time of 0.0017849 on 8 procs for 4 steps with 192 atoms

100.1% CPU use with 8 MPI tasks x no OpenMP threads

Minimization stats:
  Stopping criterion = force tolerance
  Energy initial, next-to-last, final = 
        -832.626864929     -832.627199984     -832.627199984
  Force two-norm initial, final = 2.21226 6.73329e-13
  Force max component initial, final = 1.27725 1.77042e-13
  Final line search alpha, max atom move = 1 1.77042e-13
  Iterations, force evaluations = 4 7

MPI task timing breakdown:
Section |  min time  |  avg time  |  max time  |%varavg| %total
---------------------------------------------------------------
Pair    | 0.00024114 | 0.00038235 | 0.00069466 |   0.0 | 21.42
Neigh   | 0          | 0          | 0          |   0.0 |  0.00
Comm    | 0.0002783  | 0.0005352  | 0.00077685 |   0.0 | 29.98
Output  | 0.0001494  | 0.00017306 | 0.00021116 |   0.0 |  9.70
Modify  | 0          | 0          | 0          |   0.0 |  0.00
Other   |            | 0.0006943  |            |       | 38.90

Nlocal:    24 ave 24 max 24 min
Histogram: 8 0 0 0 0 0 0 0 0 0
Nghost:    249 ave 249 max 249 min
Histogram: 8 0 0 0 0 0 0 0 0 0
Neighs:    0 ave 0 max 0 min
Histogram: 8 0 0 0 0 0 0 0 0 0
FullNghs:  672 ave 672 max 672 min
Histogram: 8 0 0 0 0 0 0 0 0 0

Total # of neighbors = 5376
Ave neighs/atom = 28
Neighbor list builds = 0
Dangerous builds = 0

variable tmp equal pxx
variable pxx0 equal ${tmp}
variable pxx0 equal -8.4964617497129e-12
variable tmp equal pyy
variable pyy0 equal ${tmp}
variable pyy0 equal -7.37946226765754e-11
variable tmp equal pzz
variable pzz0 equal ${tmp}
variable pzz0 equal 1.7495759548677e-12
variable tmp equal pyz
variable pyz0 equal ${tmp}
variable pyz0 equal -1.98103191088796e-10
variable tmp equal pxz
variable pxz0 equal ${tmp}
variable pxz0 equal 8.2830715124843e-11
variable tmp equal pxy
variable pxy0 equal ${tmp}
variable pxy0 equal 5.88692847699103e-10

variable tmp equal lx
variable lx0 equal ${tmp}
variable lx0 equal 10.8618995568104
variable tmp equal ly
variable ly0 equal ${tmp}
variable ly0 equal 16.2928493352156
variable tmp equal lz
variable lz0 equal ${tmp}
variable lz0 equal 21.7237991136209

# These formulas define the derivatives w.r.t. strain components
# Constants uses $, variables use v_
variable d1 equal -(v_pxx1-${pxx0})/(v_delta/v_len0)*${cfac}
variable d1 equal -(v_pxx1--8.4964617497129e-12)/(v_delta/v_len0)*${cfac}
variable d1 equal -(v_pxx1--8.4964617497129e-12)/(v_delta/v_len0)*0.0001
variable d2 equal -(v_pyy1-${pyy0})/(v_delta/v_len0)*${cfac}
variable d2 equal -(v_pyy1--7.37946226765754e-11)/(v_delta/v_len0)*${cfac}
variable d2 equal -(v_pyy1--7.37946226765754e-11)/(v_delta/v_len0)*0.0001
variable d3 equal -(v_pzz1-${pzz0})/(v_delta/v_len0)*${cfac}
variable d3 equal -(v_pzz1-1.7495759548677e-12)/(v_delta/v_len0)*${cfac}
variable d3 equal -(v_pzz1-1.7495759548677e-12)/(v_delta/v_len0)*0.0001
variable d4 equal -(v_pyz1-${pyz0})/(v_delta/v_len0)*${cfac}
variable d4 equal -(v_pyz1--1.98103191088796e-10)/(v_delta/v_len0)*${cfac}
variable d4 equal -(v_pyz1--1.98103191088796e-10)/(v_delta/v_len0)*0.0001
variable d5 equal -(v_pxz1-${pxz0})/(v_delta/v_len0)*${cfac}
variable d5 equal -(v_pxz1-8.2830715124843e-11)/(v_delta/v_len0)*${cfac}
variable d5 equal -(v_pxz1-8.2830715124843e-11)/(v_delta/v_len0)*0.0001
variable d6 equal -(v_pxy1-${pxy0})/(v_delta/v_len0)*${cfac}
variable d6 equal -(v_pxy1-5.88692847699103e-10)/(v_delta/v_len0)*${cfac}
variable d6 equal -(v_pxy1-5.88692847699103e-10)/(v_delta/v_len0)*0.0001

displace_atoms all random ${atomjiggle} ${atomjiggle} ${atomjiggle} 87287 units box
displace_atoms all random 1e-05 ${atomjiggle} ${atomjiggle} 87287 units box
displace_atoms all random 1e-05 1e-05 ${atomjiggle} 87287 units box
displace_atoms all random 1e-05 1e-05 1e-05 87287 units box

# Write restart
unfix 3
write_restart restart.equil

# uxx Perturbation

variable dir equal 1
include displace.mod
# NOTE: This script should not need to be
# modified. See in.elastic for more info.
#
# Find which reference length to use

if "${dir} == 1" then    "variable len0 equal ${lx0}"
variable len0 equal ${lx0}
variable len0 equal 10.8618995568104
if "${dir} == 2" then    "variable len0 equal ${ly0}"
if "${dir} == 3" then    "variable len0 equal ${lz0}"
if "${dir} == 4" then    "variable len0 equal ${lz0}"
if "${dir} == 5" then    "variable len0 equal ${lz0}"
if "${dir} == 6" then    "variable len0 equal ${ly0}"

# Reset box and simulation parameters

clear
box tilt large
read_restart restart.equil
  restoring atom style atomic from restart
  triclinic box = (-0.000949778 -0.00142467 -0.00189956) to (10.8609 16.2914 21.7219) with tilt (0 0 0)
  1 by 2 by 4 MPI processor grid
  pair style sw stores no restart info
  192 atoms
include potential.mod
# NOTE: This script can be modified for different pair styles
# See in.elastic for more info.

# Choose potential
pair_style	sw
pair_coeff * * Si.sw Si
Reading potential file Si.sw with DATE: 2007-06-11

# Setup neighbor style
neighbor 1.0 nsq
neigh_modify once no every 1 delay 0 check yes

# Setup minimization style
min_style	     cg
min_modify	     dmax ${dmax} line quadratic
min_modify	     dmax 0.01 line quadratic

# Setup output
thermo		1
thermo_style custom step temp pe press pxx pyy pzz pxy pxz pyz lx ly lz vol
thermo_modify norm no

# Negative deformation

variable delta equal -${up}*${len0}
variable delta equal -1e-06*${len0}
variable delta equal -1e-06*10.8618995568104
variable deltaxy equal -${up}*xy
variable deltaxy equal -1e-06*xy
variable deltaxz equal -${up}*xz
variable deltaxz equal -1e-06*xz
variable deltayz equal -${up}*yz
variable deltayz equal -1e-06*yz
if "${dir} == 1" then    "change_box all x delta 0 ${delta} xy delta ${deltaxy} xz delta ${deltaxz} remap units box"
change_box all x delta 0 ${delta} xy delta ${deltaxy} xz delta ${deltaxz} remap units box
change_box all x delta 0 -1.08618995568104e-05 xy delta ${deltaxy} xz delta ${deltaxz} remap units box
change_box all x delta 0 -1.08618995568104e-05 xy delta -0 xz delta ${deltaxz} remap units box
change_box all x delta 0 -1.08618995568104e-05 xy delta -0 xz delta -0 remap units box
  triclinic box = (-0.000949778 -0.00142467 -0.00189956) to (10.8609 16.2914 21.7219) with tilt (0 0 0)
  triclinic box = (-0.000949778 -0.00142467 -0.00189956) to (10.8609 16.2914 21.7219) with tilt (0 0 0)
  triclinic box = (-0.000949778 -0.00142467 -0.00189956) to (10.8609 16.2914 21.7219) with tilt (0 0 0)
if "${dir} == 2" then    "change_box all y delta 0 ${delta} yz delta ${deltayz} remap units box"
if "${dir} == 3" then    "change_box all z delta 0 ${delta} remap units box"
if "${dir} == 4" then    "change_box all yz delta ${delta} remap units box"
if "${dir} == 5" then    "change_box all xz delta ${delta} remap units box"
if "${dir} == 6" then    "change_box all xy delta ${delta} remap units box"

# Relax atoms positions

minimize ${etol} ${ftol} ${maxiter} ${maxeval}
minimize 0 ${ftol} ${maxiter} ${maxeval}
minimize 0 1e-10 ${maxiter} ${maxeval}
minimize 0 1e-10 100 ${maxeval}
minimize 0 1e-10 100 1000
Neighbor list info ...
  update every 1 steps, delay 0 steps, check yes
  max neighbors/atom: 2000, page size: 100000
  master list distance cutoff = 4.77118
  ghost atom cutoff = 4.77118
  1 neighbor lists, perpetual/occasional/extra = 1 0 0
  (1) pair sw, perpetual
      attributes: full, newton on
      pair build: full/nsq
      stencil: none
      bin: none
Per MPI rank memory allocation (min/avg/max) = 3.803 | 3.803 | 3.803 Mbytes
Step Temp PotEng Press Pxx Pyy Pzz Pxy Pxz Pyz Lx Ly Lz Volume 
       4            0    -832.6272    1.0142931    1.5143127   0.76428352   0.76428311    1.0338604   0.19830544   0.36391755    10.861889    16.292849    21.723799     3844.485 
       5            0    -832.6272    1.0142321    1.5142474   0.76422488   0.76422407  -0.26570192 -0.050965134 -0.093529692    10.861889    16.292849    21.723799     3844.485 
       6            0    -832.6272    1.0142305    1.5142459   0.76422291   0.76422271   0.25791124   0.04947118  0.090786431    10.861889    16.292849    21.723799     3844.485 
       7            0    -832.6272    1.0142306    1.5142464   0.76422284   0.76422246  -0.22573008 -0.043298191 -0.079458912    10.861889    16.292849    21.723799     3844.485 
       8            0    -832.6272    1.0142306    1.5142464   0.76422274   0.76422264   0.12788999  0.024531102  0.045018287    10.861889    16.292849    21.723799     3844.485 
       9            0    -832.6272    1.0142306    1.5142464   0.76422269   0.76422267 -0.071643174 -0.013742172 -0.025219047    10.861889    16.292849    21.723799     3844.485 
      10            0    -832.6272    1.0142306    1.5142464    0.7642227   0.76422268  0.035943209 0.0068943664  0.012652354    10.861889    16.292849    21.723799     3844.485 
      11            0    -832.6272    1.0142306    1.5142465    0.7642227   0.76422271 -0.022330126 -0.004283206 -0.0078604903    10.861889    16.292849    21.723799     3844.485 
      12            0    -832.6272    1.0142306    1.5142465    0.7642227   0.76422271  0.011993213 0.0023004225 0.0042218108    10.861889    16.292849    21.723799     3844.485 
      13            0    -832.6272    1.0142306    1.5142465    0.7642227   0.76422271 -0.0061447739 -0.0011786251 -0.0021631173    10.861889    16.292849    21.723799     3844.485 
      14            0    -832.6272    1.0142306    1.5142465    0.7642227   0.76422271 0.0039511972 0.00075784979  0.001390981    10.861889    16.292849    21.723799     3844.485 
      15            0    -832.6272    1.0142306    1.5142465    0.7642227   0.76422271 -0.0019700629 -0.00037784622 -0.0006936085    10.861889    16.292849    21.723799     3844.485 
      16            0    -832.6272    1.0142306    1.5142465    0.7642227   0.76422271 0.0012301628 0.00023590687 0.0004332021    10.861889    16.292849    21.723799     3844.485 
      17            0    -832.6272    1.0142306    1.5142465   0.76422271   0.76422271 -0.00085146658 -0.00016325425 -0.00029994327    10.861889    16.292849    21.723799     3844.485 
      18            0    -832.6272    1.0142306    1.5142465   0.76422271   0.76422271 0.00058997344 0.00011307238 0.0002079721    10.861889    16.292849    21.723799     3844.485 
      19            0    -832.6272    1.0142306    1.5142465   0.76422271   0.76422271 -0.00035690799 -6.8371579e-05 -0.00012591773    10.861889    16.292849    21.723799     3844.485 
      20            0    -832.6272    1.0142306    1.5142465   0.76422271   0.76422271 0.00018348485 3.5111684e-05 6.4855218e-05    10.861889    16.292849    21.723799     3844.485 
      21            0    -832.6272    1.0142306    1.5142465   0.76422271   0.76422271 -9.5899936e-05 -1.8308995e-05 -3.4034769e-05    10.861889    16.292849    21.723799     3844.485 
      22            0    -832.6272    1.0142306    1.5142465   0.76422271   0.76422271 4.5596668e-05 8.6646486e-06 1.631264e-05    10.861889    16.292849    21.723799     3844.485 
      23            0    -832.6272    1.0142306    1.5142465   0.76422271   0.76422271 -1.9450292e-05 -3.6365586e-06 -7.1511885e-06    10.861889    16.292849    21.723799     3844.485 
      24            0    -832.6272    1.0142306    1.5142465   0.76422271   0.76422271 1.1113459e-05 1.9807044e-06 4.3992867e-06    10.861889    16.292849    21.723799     3844.485 
      25            0    -832.6272    1.0142306    1.5142465   0.76422271   0.76422271 -3.1110262e-06 -4.7192484e-07 -1.4977658e-06    10.861889    16.292849    21.723799     3844.485 
      26            0    -832.6272    1.0142306    1.5142465   0.76422271   0.76422271 6.6055933e-07 -1.1572859e-07 1.0140182e-06    10.861889    16.292849    21.723799     3844.485 
      27            0    -832.6272    1.0142306    1.5142465   0.76422271   0.76422271 1.0615747e-06 4.7972185e-07 -5.1623481e-07    10.861889    16.292849    21.723799     3844.485 
      28            0    -832.6272    1.0142306    1.5142465   0.76422271   0.76422271 -1.5188968e-06 -5.274474e-07 2.2644675e-07    10.861889    16.292849    21.723799     3844.485 
      29            0    -832.6272    1.0142306    1.5142465   0.76422271   0.76422271 2.5020022e-06 7.8806492e-07 -1.1295623e-07    10.861889    16.292849    21.723799     3844.485 
      30            0    -832.6272    1.0142306    1.5142465   0.76422271   0.76422271 -2.2845442e-06 -6.9703043e-07 3.0850529e-08    10.861889    16.292849    21.723799     3844.485 
      31            0    -832.6272    1.0142306    1.5142465   0.76422271   0.76422271 2.6051073e-06 7.8409705e-07 -5.739648e-10    10.861889    16.292849    21.723799     3844.485 
      32            0    -832.6272    1.0142306    1.5142465   0.76422271   0.76422271 -2.731775e-06 -8.1705858e-07 -1.6197341e-08    10.861889    16.292849    21.723799     3844.485 
      33            0    -832.6272    1.0142306    1.5142465   0.76422271   0.76422271 2.8456707e-06 8.490449e-07 2.3602924e-08    10.861889    16.292849    21.723799     3844.485 
      34            0    -832.6272    1.0142306    1.5142465   0.76422271   0.76422271 -2.2447256e-06 -6.6886105e-07 -2.1399147e-08    10.861889    16.292849    21.723799     3844.485 
      35            0    -832.6272    1.0142306    1.5142465   0.76422271   0.76422271 2.190918e-06 6.5209369e-07 2.2902062e-08    10.861889    16.292849    21.723799     3844.485 
      36            0    -832.6272    1.0142306    1.5142465   0.76422271   0.76422271 -2.170552e-06 -6.4564361e-07 -2.3692295e-08    10.861889    16.292849    21.723799     3844.485 
      37            0    -832.6272    1.0142306    1.5142465   0.76422271   0.76422271 1.9459025e-06 5.7862137e-07 2.1670178e-08    10.861889    16.292849    21.723799     3844.485 
      38            0    -832.6272    1.0142306    1.5142465   0.76422271   0.76422271 -1.7561423e-06 -5.2211188e-07 -1.9801234e-08    10.861889    16.292849    21.723799     3844.485 
      39            0    -832.6272    1.0142306    1.5142465   0.76422271   0.76422271 2.1805622e-06 6.4828883e-07 2.4687295e-08    10.861889    16.292849    21.723799     3844.485 
      40            0    -832.6272    1.0142306    1.5142465   0.76422271   0.76422271 -1.7846369e-06 -5.3059554e-07 -2.0241803e-08    10.861889    16.292849    21.723799     3844.485 
      41            0    -832.6272    1.0142306    1.5142465   0.76422271   0.76422271 1.5844627e-06 4.7101038e-07 1.7950245e-08    10.861889    16.292849    21.723799     3844.485 
      42            0    -832.6272    1.0142306    1.5142465   0.76422271   0.76422271 -2.5798537e-06 -7.6684684e-07 -2.9161033e-08    10.861889    16.292849    21.723799     3844.485 
      43            0    -832.6272    1.0142306    1.5142465   0.76422271   0.76422271 1.5591784e-06 4.633894e-07 1.7595184e-08    10.861889    16.292849    21.723799     3844.485 
      44            0    -832.6272    1.0142306    1.5142465   0.76422271   0.76422271 -1.787321e-06 -5.3114593e-07 -2.0108295e-08    10.861889    16.292849    21.723799     3844.485 
      45            0    -832.6272    1.0142306    1.5142465   0.76422271   0.76422271 1.334014e-06 3.9639778e-07 1.4958157e-08    10.861889    16.292849    21.723799     3844.485 
      46            0    -832.6272    1.0142306    1.5142465   0.76422271   0.76422271 -8.2407726e-07 -2.448192e-07 -9.2085942e-09    10.861889    16.292849    21.723799     3844.485 
      47            0    -832.6272    1.0142306    1.5142465   0.76422271   0.76422271 3.672012e-07 1.0903528e-07 4.0493418e-09    10.861889    16.292849    21.723799     3844.485 
      48            0    -832.6272    1.0142306    1.5142465   0.76422271   0.76422271 -2.0064054e-07 -5.9417133e-08 -2.1110615e-09    10.861889    16.292849    21.723799     3844.485 
      49            0    -832.6272    1.0142306    1.5142465   0.76422271   0.76422271 7.5575519e-08 2.2154664e-08 7.4034156e-10    10.861889    16.292849    21.723799     3844.485 
      50            0    -832.6272    1.0142306    1.5142465   0.76422271   0.76422271 -3.4583181e-08 -9.9105601e-09 -3.137476e-10    10.861889    16.292849    21.723799     3844.485 
      51            0    -832.6272    1.0142306    1.5142465   0.76422271   0.76422271 2.3750257e-08 6.4379862e-09 1.885133e-10    10.861889    16.292849    21.723799     3844.485 
      52            0    -832.6272    1.0142306    1.5142465   0.76422271   0.76422271 -7.6959799e-09 -1.8121618e-09 -8.3630628e-11    10.861889    16.292849    21.723799     3844.485 
      53            0    -832.6272    1.0142306    1.5142465   0.76422271   0.76422271 3.6617199e-09 5.5363636e-10 8.5511504e-11    10.861889    16.292849    21.723799     3844.485 
Loop time of 0.0104234 on 8 procs for 49 steps with 192 atoms

95.4% CPU use with 8 MPI tasks x no OpenMP threads

Minimization stats:
  Stopping criterion = force tolerance
  Energy initial, next-to-last, final = 
        -832.627199814     -832.627199982     -832.627199982
  Force two-norm initial, final = 0.00295832 7.32702e-11
  Force max component initial, final = 0.000321141 8.91251e-12
  Final line search alpha, max atom move = 1 8.91251e-12
  Iterations, force evaluations = 49 98

MPI task timing breakdown:
Section |  min time  |  avg time  |  max time  |%varavg| %total
---------------------------------------------------------------
Pair    | 0.0025977  | 0.0030114  | 0.0040149  |   0.7 | 28.89
Neigh   | 0          | 0          | 0          |   0.0 |  0.00
Comm    | 0.0022531  | 0.0031935  | 0.0037394  |   1.0 | 30.64
Output  | 0.0015782  | 0.0016602  | 0.0018328  |   0.2 | 15.93
Modify  | 0          | 0          | 0          |   0.0 |  0.00
Other   |            | 0.002558   |            |       | 24.54

Nlocal:    24 ave 26 max 21 min
Histogram: 1 0 0 0 1 0 3 0 2 1
Nghost:    249 ave 252 max 247 min
Histogram: 1 0 2 0 3 0 1 0 0 1
Neighs:    0 ave 0 max 0 min
Histogram: 8 0 0 0 0 0 0 0 0 0
FullNghs:  672 ave 728 max 588 min
Histogram: 1 0 0 0 1 0 3 0 2 1

Total # of neighbors = 5376
Ave neighs/atom = 28
Neighbor list builds = 0
Dangerous builds = 0

# Obtain new stress tensor

variable tmp equal pxx
variable pxx1 equal ${tmp}
variable pxx1 equal 1.51424647237401
variable tmp equal pyy
variable pyy1 equal ${tmp}
variable pyy1 equal 0.764222708897033
variable tmp equal pzz
variable pzz1 equal ${tmp}
variable pzz1 equal 0.764222709021124
variable tmp equal pxy
variable pxy1 equal ${tmp}
variable pxy1 equal 3.66171988649861e-09
variable tmp equal pxz
variable pxz1 equal ${tmp}
variable pxz1 equal 5.536363563543e-10
variable tmp equal pyz
variable pyz1 equal ${tmp}
variable pyz1 equal 8.55115043986383e-11

# Compute elastic constant from pressure tensor

variable C1neg equal ${d1}
variable C1neg equal 151.424647238251
variable C2neg equal ${d2}
variable C2neg equal 76.4222708970828
variable C3neg equal ${d3}
variable C3neg equal 76.4222709019375
variable C4neg equal ${d4}
variable C4neg equal 2.83614695487434e-08
variable C5neg equal ${d5}
variable C5neg equal 4.70805641229457e-08
variable C6neg equal ${d6}
variable C6neg equal 3.07302703879951e-07

# Reset box and simulation parameters

clear
box tilt large
read_restart restart.equil
  restoring atom style atomic from restart
  triclinic box = (-0.000949778 -0.00142467 -0.00189956) to (10.8609 16.2914 21.7219) with tilt (0 0 0)
  1 by 2 by 4 MPI processor grid
  pair style sw stores no restart info
  192 atoms
include potential.mod
# NOTE: This script can be modified for different pair styles
# See in.elastic for more info.

# Choose potential
pair_style	sw
pair_coeff * * Si.sw Si
Reading potential file Si.sw with DATE: 2007-06-11

# Setup neighbor style
neighbor 1.0 nsq
neigh_modify once no every 1 delay 0 check yes

# Setup minimization style
min_style	     cg
min_modify	     dmax ${dmax} line quadratic
min_modify	     dmax 0.01 line quadratic

# Setup output
thermo		1
thermo_style custom step temp pe press pxx pyy pzz pxy pxz pyz lx ly lz vol
thermo_modify norm no

# Positive deformation

variable delta equal ${up}*${len0}
variable delta equal 1e-06*${len0}
variable delta equal 1e-06*10.8618995568104
variable deltaxy equal ${up}*xy
variable deltaxy equal 1e-06*xy
variable deltaxz equal ${up}*xz
variable deltaxz equal 1e-06*xz
variable deltayz equal ${up}*yz
variable deltayz equal 1e-06*yz
if "${dir} == 1" then    "change_box all x delta 0 ${delta} xy delta ${deltaxy} xz delta ${deltaxz} remap units box"
change_box all x delta 0 ${delta} xy delta ${deltaxy} xz delta ${deltaxz} remap units box
change_box all x delta 0 1.08618995568104e-05 xy delta ${deltaxy} xz delta ${deltaxz} remap units box
change_box all x delta 0 1.08618995568104e-05 xy delta 0 xz delta ${deltaxz} remap units box
change_box all x delta 0 1.08618995568104e-05 xy delta 0 xz delta 0 remap units box
  triclinic box = (-0.000949778 -0.00142467 -0.00189956) to (10.861 16.2914 21.7219) with tilt (0 0 0)
  triclinic box = (-0.000949778 -0.00142467 -0.00189956) to (10.861 16.2914 21.7219) with tilt (0 0 0)
  triclinic box = (-0.000949778 -0.00142467 -0.00189956) to (10.861 16.2914 21.7219) with tilt (0 0 0)
if "${dir} == 2" then    "change_box all y delta 0 ${delta} yz delta ${deltayz} remap units box"
if "${dir} == 3" then    "change_box all z delta 0 ${delta} remap units box"
if "${dir} == 4" then    "change_box all yz delta ${delta} remap units box"
if "${dir} == 5" then    "change_box all xz delta ${delta} remap units box"
if "${dir} == 6" then    "change_box all xy delta ${delta} remap units box"

# Relax atoms positions

minimize ${etol} ${ftol} ${maxiter} ${maxeval}
minimize 0 ${ftol} ${maxiter} ${maxeval}
minimize 0 1e-10 ${maxiter} ${maxeval}
minimize 0 1e-10 100 ${maxeval}
minimize 0 1e-10 100 1000
Neighbor list info ...
  update every 1 steps, delay 0 steps, check yes
  max neighbors/atom: 2000, page size: 100000
  master list distance cutoff = 4.77118
  ghost atom cutoff = 4.77118
  1 neighbor lists, perpetual/occasional/extra = 1 0 0
  (1) pair sw, perpetual
      attributes: full, newton on
      pair build: full/nsq
      stencil: none
      bin: none
Per MPI rank memory allocation (min/avg/max) = 3.803 | 3.803 | 3.803 Mbytes
Step Temp PotEng Press Pxx Pyy Pzz Pxy Pxz Pyz Lx Ly Lz Volume 
       4            0    -832.6272   -1.0141646   -1.5141769  -0.76415817  -0.76415857    1.0338551   0.19830442   0.36391577     10.86191    16.292849    21.723799    3844.4927 
       5            0    -832.6272   -1.0142256   -1.5142422  -0.76421681  -0.76421761  -0.26570125 -0.050965008 -0.093529136     10.86191    16.292849    21.723799    3844.4927 
       6            0    -832.6272   -1.0142271   -1.5142437  -0.76421877  -0.76421898   0.25791088  0.049471111  0.090785723     10.86191    16.292849    21.723799    3844.4927 
       7            0    -832.6272   -1.0142271   -1.5142432  -0.76421885  -0.76421922   -0.2257296 -0.043298098  -0.07945797     10.86191    16.292849    21.723799    3844.4927 
       8            0    -832.6272    -1.014227   -1.5142431  -0.76421895  -0.76421904   0.12788964  0.024531036  0.045017446     10.86191    16.292849    21.723799    3844.4927 
       9            0    -832.6272   -1.0142271   -1.5142432  -0.76421899  -0.76421901 -0.071642956  -0.01374213  -0.02521831     10.86191    16.292849    21.723799    3844.4927 
      10            0    -832.6272    -1.014227   -1.5142431  -0.76421899    -0.764219  0.035943135  0.006894352  0.012651755     10.86191    16.292849    21.723799    3844.4927 
      11            0    -832.6272    -1.014227   -1.5142431  -0.76421898  -0.76421897 -0.022330121 -0.004283205 -0.0078598484     10.86191    16.292849    21.723799    3844.4927 
      12            0    -832.6272    -1.014227   -1.5142431  -0.76421899  -0.76421898  0.011993269 0.0023004331 0.0042212758     10.86191    16.292849    21.723799    3844.4927 
      13            0    -832.6272    -1.014227   -1.5142431  -0.76421898  -0.76421897 -0.006144842 -0.0011786381 -0.0021626711     10.86191    16.292849    21.723799    3844.4927 
      14            0    -832.6272    -1.014227   -1.5142431  -0.76421898  -0.76421898 0.0039512972 0.00075786894  0.001390499     10.86191    16.292849    21.723799    3844.4927 
      15            0    -832.6272    -1.014227   -1.5142431  -0.76421898  -0.76421897 -0.0019701777 -0.00037786831 -0.00069316386     10.86191    16.292849    21.723799    3844.4927 
      16            0    -832.6272    -1.014227   -1.5142431  -0.76421898  -0.76421898 0.0012303321 0.00023593954 0.00043263204     10.86191    16.292849    21.723799    3844.4927 
      17            0    -832.6272    -1.014227   -1.5142431  -0.76421898  -0.76421898 -0.00085168422 -0.00016329628 -0.00029924499     10.86191    16.292849    21.723799    3844.4927 
      18            0    -832.6272    -1.014227   -1.5142431  -0.76421898  -0.76421898 0.00059027376 0.00011313037 0.00020704167     10.86191    16.292849    21.723799    3844.4927 
      19            0    -832.6272    -1.014227   -1.5142431  -0.76421898  -0.76421898 -0.00035719608 -6.8427235e-05 -0.00012503593     10.86191    16.292849    21.723799    3844.4927 
      20            0    -832.6272    -1.014227   -1.5142431  -0.76421898  -0.76421898 0.00018375958 3.5164836e-05 6.4026544e-05     10.86191    16.292849    21.723799    3844.4927 
      21            0    -832.6272    -1.014227   -1.5142431  -0.76421898  -0.76421898 -9.6187404e-05 -1.8364645e-05 -3.3177257e-05     10.86191    16.292849    21.723799    3844.4927 
      22            0    -832.6272    -1.014227   -1.5142431  -0.76421898  -0.76421898 4.5869795e-05 8.7175749e-06 1.5502338e-05     10.86191    16.292849    21.723799    3844.4927 
      23            0    -832.6272    -1.014227   -1.5142431  -0.76421898  -0.76421898 -1.9768038e-05 -3.698221e-06 -6.2105352e-06     10.86191    16.292849    21.723799    3844.4927 
      24            0    -832.6272    -1.014227   -1.5142431  -0.76421898  -0.76421898 1.1622239e-05 2.0795597e-06 2.8943937e-06     10.86191    16.292849    21.723799    3844.4927 
      25            0    -832.6272    -1.014227   -1.5142431  -0.76421898  -0.76421898 -3.5317244e-06 -5.5383921e-07 -2.5420257e-07     10.86191    16.292849    21.723799    3844.4927 
      26            0    -832.6272    -1.014227   -1.5142431  -0.76421898  -0.76421898 1.4773115e-06 4.3492476e-08 -1.3994119e-06     10.86191    16.292849    21.723799    3844.4927 
      27            0    -832.6272    -1.014227   -1.5142431  -0.76421898  -0.76421898 1.3145977e-07 2.9832907e-07 2.2317029e-06     10.86191    16.292849    21.723799    3844.4927 
      28            0    -832.6272    -1.014227   -1.5142431  -0.76421898  -0.76421898 -7.2320521e-07 -3.7228453e-07 -2.1234406e-06     10.86191    16.292849    21.723799    3844.4927 
      29            0    -832.6272    -1.014227   -1.5142431  -0.76421898  -0.76421898 1.4628656e-06 5.8557979e-07 2.9544547e-06     10.86191    16.292849    21.723799    3844.4927 
      30            0    -832.6272    -1.014227   -1.5142431  -0.76421898  -0.76421898 -1.4112749e-06 -5.2709912e-07 -2.5465922e-06     10.86191    16.292849    21.723799    3844.4927 
      31            0    -832.6272    -1.014227   -1.5142431  -0.76421898  -0.76421898 1.6455627e-06 5.9741421e-07 2.8316884e-06     10.86191    16.292849    21.723799    3844.4927 
      32            0    -832.6272    -1.014227   -1.5142431  -0.76421898  -0.76421898 -1.74318e-06 -6.245797e-07 -2.9342111e-06     10.86191    16.292849    21.723799    3844.4927 
      33            0    -832.6272    -1.014227   -1.5142431  -0.76421898  -0.76421898 1.8228022e-06 6.4979262e-07 3.0421434e-06     10.86191    16.292849    21.723799    3844.4927 
      34            0    -832.6272    -1.014227   -1.5142431  -0.76421898  -0.76421898 -1.440485e-06 -5.1209286e-07 -2.3934203e-06     10.86191    16.292849    21.723799    3844.4927 
      35            0    -832.6272    -1.014227   -1.5142431  -0.76421898  -0.76421898 1.4077111e-06 4.9934217e-07 2.3311866e-06     10.86191    16.292849    21.723799    3844.4927 
      36            0    -832.6272    -1.014227   -1.5142431  -0.76421898  -0.76421898 -1.3950825e-06 -4.9436864e-07 -2.3064909e-06     10.86191    16.292849    21.723799    3844.4927 
      37            0    -832.6272    -1.014227   -1.5142431  -0.76421898  -0.76421898 1.2501124e-06 4.4285575e-07 2.0653295e-06     10.86191    16.292849    21.723799    3844.4927 
      38            0    -832.6272    -1.014227   -1.5142431  -0.76421898  -0.76421898 -1.1269899e-06 -3.9916213e-07 -1.8612019e-06     10.86191    16.292849    21.723799    3844.4927 
      39            0    -832.6272    -1.014227   -1.5142431  -0.76421898  -0.76421898 1.3949664e-06 4.9402488e-07 2.3034523e-06     10.86191    16.292849    21.723799    3844.4927 
      40            0    -832.6272    -1.014227   -1.5142431  -0.76421898  -0.76421898 -1.1339538e-06 -4.0153915e-07 -1.872362e-06     10.86191    16.292849    21.723799    3844.4927 
      41            0    -832.6272    -1.014227   -1.5142431  -0.76421898  -0.76421898 9.9413225e-07 3.5200733e-07 1.6413943e-06     10.86191    16.292849    21.723799    3844.4927 
      42            0    -832.6272    -1.014227   -1.5142431  -0.76421898  -0.76421898 -1.5686879e-06 -5.5553726e-07 -2.5901426e-06     10.86191    16.292849    21.723799    3844.4927 
      43            0    -832.6272    -1.014227   -1.5142431  -0.76421898  -0.76421898 9.0649461e-07 3.2107196e-07 1.4967698e-06     10.86191    16.292849    21.723799    3844.4927 
      44            0    -832.6272    -1.014227   -1.5142431  -0.76421898  -0.76421898 -9.6795555e-07 -3.4282911e-07 -1.598145e-06     10.86191    16.292849    21.723799    3844.4927 
      45            0    -832.6272    -1.014227   -1.5142431  -0.76421898  -0.76421898 6.6620483e-07 2.3593654e-07 1.0998208e-06     10.86191    16.292849    21.723799    3844.4927 
      46            0    -832.6272    -1.014227   -1.5142431  -0.76421898  -0.76421898 -3.866722e-07 -1.3692368e-07 -6.3830254e-07     10.86191    16.292849    21.723799    3844.4927 
      47            0    -832.6272    -1.014227   -1.5142431  -0.76421898  -0.76421898 1.6493517e-07 5.8444743e-08 2.7218645e-07     10.86191    16.292849    21.723799    3844.4927 
      48            0    -832.6272    -1.014227   -1.5142431  -0.76421898  -0.76421898 -8.8750102e-08 -3.1544938e-08 -1.4626643e-07     10.86191    16.292849    21.723799    3844.4927 
      49            0    -832.6272    -1.014227   -1.5142431  -0.76421898  -0.76421898 3.3135103e-08 1.1832674e-08 5.4321002e-08     10.86191    16.292849    21.723799    3844.4927 
      50            0    -832.6272    -1.014227   -1.5142431  -0.76421898  -0.76421898 -1.4992403e-08 -5.4578665e-09 -2.4314016e-08     10.86191    16.292849    21.723799    3844.4927 
      51            0    -832.6272    -1.014227   -1.5142431  -0.76421898  -0.76421898 1.0093246e-08 3.8250396e-09 1.5927865e-08     10.86191    16.292849    21.723799    3844.4927 
      52            0    -832.6272    -1.014227   -1.5142431  -0.76421898  -0.76421898 -3.0812487e-09 -1.2784373e-09 -4.6637015e-09     10.86191    16.292849    21.723799    3844.4927 
      53            0    -832.6272    -1.014227   -1.5142431  -0.76421898  -0.76421898 1.2436104e-09 6.2059221e-10 1.6034251e-09     10.86191    16.292849    21.723799    3844.4927 
Loop time of 0.00878683 on 8 procs for 49 steps with 192 atoms

97.7% CPU use with 8 MPI tasks x no OpenMP threads

Minimization stats:
  Stopping criterion = force tolerance
  Energy initial, next-to-last, final = 
        -832.627199814     -832.627199982     -832.627199982
  Force two-norm initial, final = 0.00295832 7.32726e-11
  Force max component initial, final = 0.00032114 8.84802e-12
  Final line search alpha, max atom move = 1 8.84802e-12
  Iterations, force evaluations = 49 98

MPI task timing breakdown:
Section |  min time  |  avg time  |  max time  |%varavg| %total
---------------------------------------------------------------
Pair    | 0.0025347  | 0.0027458  | 0.002955   |   0.3 | 31.25
Neigh   | 0          | 0          | 0          |   0.0 |  0.00
Comm    | 0.0023361  | 0.002484   | 0.0027075  |   0.3 | 28.27
Output  | 0.0014117  | 0.0014763  | 0.0016367  |   0.2 | 16.80
Modify  | 0          | 0          | 0          |   0.0 |  0.00
Other   |            | 0.002081   |            |       | 23.68

Nlocal:    24 ave 26 max 21 min
Histogram: 1 0 0 0 1 0 3 0 2 1
Nghost:    249 ave 252 max 247 min
Histogram: 1 0 2 0 3 0 1 0 0 1
Neighs:    0 ave 0 max 0 min
Histogram: 8 0 0 0 0 0 0 0 0 0
FullNghs:  672 ave 728 max 588 min
Histogram: 1 0 0 0 1 0 3 0 2 1

Total # of neighbors = 5376
Ave neighs/atom = 28
Neighbor list builds = 0
Dangerous builds = 0

# Obtain new stress tensor

variable tmp equal pe
variable e1 equal ${tmp}
variable e1 equal -832.6271999823
variable tmp equal press
variable p1 equal ${tmp}
variable p1 equal -1.01422702226707
variable tmp equal pxx
variable pxx1 equal ${tmp}
variable pxx1 equal -1.5142431128908
variable tmp equal pyy
variable pyy1 equal ${tmp}
variable pyy1 equal -0.764218977013098
variable tmp equal pzz
variable pzz1 equal ${tmp}
variable pzz1 equal -0.764218976897302
variable tmp equal pxy
variable pxy1 equal ${tmp}
variable pxy1 equal 1.24361037587448e-09
variable tmp equal pxz
variable pxz1 equal ${tmp}
variable pxz1 equal 6.2059221229373e-10
variable tmp equal pyz
variable pyz1 equal ${tmp}
variable pyz1 equal 1.60342511195077e-09

# Compute elastic constant from pressure tensor

variable C1pos equal ${d1}
variable C1pos equal 151.42431128823
variable C2pos equal ${d2}
variable C2pos equal 76.4218976939303
variable C3pos equal ${d3}
variable C3pos equal 76.4218976899052
variable C4pos equal ${d4}
variable C4pos equal -1.80152830303957e-07
variable C5pos equal ${d5}
variable C5pos equal -5.37761497168887e-08
variable C6pos equal ${d6}
variable C6pos equal -6.54917528175377e-08

# Combine positive and negative

variable C1${dir} equal 0.5*(${C1neg}+${C1pos})
variable C11 equal 0.5*(${C1neg}+${C1pos})
variable C11 equal 0.5*(151.424647238251+${C1pos})
variable C11 equal 0.5*(151.424647238251+151.42431128823)
variable C2${dir} equal 0.5*(${C2neg}+${C2pos})
variable C21 equal 0.5*(${C2neg}+${C2pos})
variable C21 equal 0.5*(76.4222708970828+${C2pos})
variable C21 equal 0.5*(76.4222708970828+76.4218976939303)
variable C3${dir} equal 0.5*(${C3neg}+${C3pos})
variable C31 equal 0.5*(${C3neg}+${C3pos})
variable C31 equal 0.5*(76.4222709019375+${C3pos})
variable C31 equal 0.5*(76.4222709019375+76.4218976899052)
variable C4${dir} equal 0.5*(${C4neg}+${C4pos})
variable C41 equal 0.5*(${C4neg}+${C4pos})
variable C41 equal 0.5*(2.83614695487434e-08+${C4pos})
variable C41 equal 0.5*(2.83614695487434e-08+-1.80152830303957e-07)
variable C5${dir} equal 0.5*(${C5neg}+${C5pos})
variable C51 equal 0.5*(${C5neg}+${C5pos})
variable C51 equal 0.5*(4.70805641229457e-08+${C5pos})
variable C51 equal 0.5*(4.70805641229457e-08+-5.37761497168887e-08)
variable C6${dir} equal 0.5*(${C6neg}+${C6pos})
variable C61 equal 0.5*(${C6neg}+${C6pos})
variable C61 equal 0.5*(3.07302703879951e-07+${C6pos})
variable C61 equal 0.5*(3.07302703879951e-07+-6.54917528175377e-08)

# Delete dir to make sure it is not reused

variable dir delete

# uyy Perturbation

variable dir equal 2
include displace.mod
# NOTE: This script should not need to be
# modified. See in.elastic for more info.
#
# Find which reference length to use

if "${dir} == 1" then    "variable len0 equal ${lx0}"
if "${dir} == 2" then    "variable len0 equal ${ly0}"
variable len0 equal ${ly0}
variable len0 equal 16.2928493352156
if "${dir} == 3" then    "variable len0 equal ${lz0}"
if "${dir} == 4" then    "variable len0 equal ${lz0}"
if "${dir} == 5" then    "variable len0 equal ${lz0}"
if "${dir} == 6" then    "variable len0 equal ${ly0}"

# Reset box and simulation parameters

clear
box tilt large
read_restart restart.equil
  restoring atom style atomic from restart
  triclinic box = (-0.000949778 -0.00142467 -0.00189956) to (10.8609 16.2914 21.7219) with tilt (0 0 0)
  1 by 2 by 4 MPI processor grid
  pair style sw stores no restart info
  192 atoms
include potential.mod
# NOTE: This script can be modified for different pair styles
# See in.elastic for more info.

# Choose potential
pair_style	sw
pair_coeff * * Si.sw Si
Reading potential file Si.sw with DATE: 2007-06-11

# Setup neighbor style
neighbor 1.0 nsq
neigh_modify once no every 1 delay 0 check yes

# Setup minimization style
min_style	     cg
min_modify	     dmax ${dmax} line quadratic
min_modify	     dmax 0.01 line quadratic

# Setup output
thermo		1
thermo_style custom step temp pe press pxx pyy pzz pxy pxz pyz lx ly lz vol
thermo_modify norm no

# Negative deformation

variable delta equal -${up}*${len0}
variable delta equal -1e-06*${len0}
variable delta equal -1e-06*16.2928493352156
variable deltaxy equal -${up}*xy
variable deltaxy equal -1e-06*xy
variable deltaxz equal -${up}*xz
variable deltaxz equal -1e-06*xz
variable deltayz equal -${up}*yz
variable deltayz equal -1e-06*yz
if "${dir} == 1" then    "change_box all x delta 0 ${delta} xy delta ${deltaxy} xz delta ${deltaxz} remap units box"
if "${dir} == 2" then    "change_box all y delta 0 ${delta} yz delta ${deltayz} remap units box"
change_box all y delta 0 ${delta} yz delta ${deltayz} remap units box
change_box all y delta 0 -1.62928493352156e-05 yz delta ${deltayz} remap units box
change_box all y delta 0 -1.62928493352156e-05 yz delta -0 remap units box
  triclinic box = (-0.000949778 -0.00142467 -0.00189956) to (10.8609 16.2914 21.7219) with tilt (0 0 0)
  triclinic box = (-0.000949778 -0.00142467 -0.00189956) to (10.8609 16.2914 21.7219) with tilt (0 0 0)
if "${dir} == 3" then    "change_box all z delta 0 ${delta} remap units box"
if "${dir} == 4" then    "change_box all yz delta ${delta} remap units box"
if "${dir} == 5" then    "change_box all xz delta ${delta} remap units box"
if "${dir} == 6" then    "change_box all xy delta ${delta} remap units box"

# Relax atoms positions

minimize ${etol} ${ftol} ${maxiter} ${maxeval}
minimize 0 ${ftol} ${maxiter} ${maxeval}
minimize 0 1e-10 ${maxiter} ${maxeval}
minimize 0 1e-10 100 ${maxeval}
minimize 0 1e-10 100 1000
Neighbor list info ...
  update every 1 steps, delay 0 steps, check yes
  max neighbors/atom: 2000, page size: 100000
  master list distance cutoff = 4.77118
  ghost atom cutoff = 4.77118
  1 neighbor lists, perpetual/occasional/extra = 1 0 0
  (1) pair sw, perpetual
      attributes: full, newton on
      pair build: full/nsq
      stencil: none
      bin: none
Per MPI rank memory allocation (min/avg/max) = 3.803 | 3.803 | 3.803 Mbytes
Step Temp PotEng Press Pxx Pyy Pzz Pxy Pxz Pyz Lx Ly Lz Volume 
       4            0    -832.6272    1.0142931    0.7642889    1.5143073   0.76428311    1.0338604   0.19830542   0.36391759      10.8619    16.292833    21.723799     3844.485 
       5            0    -832.6272    1.0142321    0.7642236    1.5142486   0.76422407  -0.26570193 -0.050965226 -0.093529537      10.8619    16.292833    21.723799     3844.485 
       6            0    -832.6272    1.0142305   0.76422213    1.5142467   0.76422271   0.25791125   0.04947134  0.090786143      10.8619    16.292833    21.723799     3844.485 
       7            0    -832.6272    1.0142306   0.76422263    1.5142466   0.76422246  -0.22573014 -0.043298413 -0.079458548      10.8619    16.292833    21.723799     3844.485 
       8            0    -832.6272    1.0142306   0.76422267    1.5142465   0.76422264   0.12789009  0.024531318  0.045017964      10.8619    16.292833    21.723799     3844.485 
       9            0    -832.6272    1.0142306   0.76422266    1.5142465   0.76422267 -0.071643216  -0.01374236 -0.025218732      10.8619    16.292833    21.723799     3844.485 
      10            0    -832.6272    1.0142306   0.76422268    1.5142465   0.76422268  0.035943267 0.0068945335  0.012652088      10.8619    16.292833    21.723799     3844.485 
      11            0    -832.6272    1.0142306   0.76422269    1.5142465   0.76422271 -0.022330188 -0.0042833923 -0.0078601919      10.8619    16.292833    21.723799     3844.485 
      12            0    -832.6272    1.0142306    0.7642227    1.5142465   0.76422271  0.011993287 0.0023005879 0.0042215595      10.8619    16.292833    21.723799     3844.485 
      13            0    -832.6272    1.0142306   0.76422269    1.5142465   0.76422271 -0.0061448239 -0.001178763 -0.0021628999      10.8619    16.292833    21.723799     3844.485 
      14            0    -832.6272    1.0142306    0.7642227    1.5142465   0.76422271 0.0039512548 0.00075800217  0.001390743      10.8619    16.292833    21.723799     3844.485 
      15            0    -832.6272    1.0142306    0.7642227    1.5142465   0.76422271 -0.0019701138 -0.00037798871 -0.00069338432      10.8619    16.292833    21.723799     3844.485 
      16            0    -832.6272    1.0142306    0.7642227    1.5142465   0.76422271 0.0012302287 0.00023609195 0.00043291111      10.8619    16.292833    21.723799     3844.485 
      17            0    -832.6272    1.0142306   0.76422271    1.5142465   0.76422271 -0.00085154788 -0.00016348223 -0.00029958528      10.8619    16.292833    21.723799     3844.485 
      18            0    -832.6272    1.0142306   0.76422271    1.5142465   0.76422271 0.00059008252 0.00011337756 0.0002074937      10.8619    16.292833    21.723799     3844.485 
      19            0    -832.6272    1.0142306   0.76422271    1.5142465   0.76422271 -0.00035701201 -6.8661378e-05 -0.00012546394      10.8619    16.292833    21.723799     3844.485 
      20            0    -832.6272    1.0142306   0.76422271    1.5142465   0.76422271 0.00018358274 3.5384556e-05 6.4428031e-05      10.8619    16.292833    21.723799     3844.485 
      21            0    -832.6272    1.0142306   0.76422271    1.5142465   0.76422271 -9.600116e-05 -1.85917e-05 -3.3592111e-05      10.8619    16.292833    21.723799     3844.485 
      22            0    -832.6272    1.0142306   0.76422271    1.5142465   0.76422271 4.569243e-05 8.932026e-06  1.58942e-05      10.8619    16.292833    21.723799     3844.485 
      23            0    -832.6272    1.0142306   0.76422271    1.5142465   0.76422271 -1.9560972e-05 -3.9470189e-06 -6.6653354e-06      10.8619    16.292833    21.723799     3844.485 
      24            0    -832.6272    1.0142306   0.76422271    1.5142465   0.76422271 1.1290396e-05 2.4774361e-06 3.6219997e-06      10.8619    16.292833    21.723799     3844.485 
      25            0    -832.6272    1.0142306   0.76422271    1.5142465   0.76422271 -3.2574484e-06 -8.8240969e-07 -8.5548137e-07      10.8619    16.292833    21.723799     3844.485 
      26            0    -832.6272    1.0142306   0.76422271    1.5142465   0.76422271 9.4501819e-07 6.8095659e-07 -2.324158e-07      10.8619    16.292833    21.723799     3844.485 
      27            0    -832.6272    1.0142306   0.76422271    1.5142465   0.76422271 7.3767147e-07 -4.2742573e-07 9.0296937e-07      10.8619    16.292833    21.723799     3844.485 
      28            0    -832.6272    1.0142306   0.76422271    1.5142465   0.76422271 -1.2418839e-06 2.4820434e-07 -9.8724812e-07      10.8619    16.292833    21.723799     3844.485 
      29            0    -832.6272    1.0142306   0.76422271    1.5142465   0.76422271 2.1403578e-06 -2.2429263e-07 1.471401e-06      10.8619    16.292833    21.723799     3844.485 
      30            0    -832.6272    1.0142306   0.76422271    1.5142465   0.76422271 -1.9807414e-06 1.534874e-07 -1.3005006e-06      10.8619    16.292833    21.723799     3844.485 
      31            0    -832.6272    1.0142306   0.76422271    1.5142465   0.76422271 2.2713372e-06 -1.5044337e-07 1.4623991e-06      10.8619    16.292833    21.723799     3844.485 
      32            0    -832.6272    1.0142306   0.76422271    1.5142465   0.76422271 -2.3878084e-06 1.4584625e-07 -1.523401e-06      10.8619    16.292833    21.723799     3844.485 
      33            0    -832.6272    1.0142306   0.76422271    1.5142465   0.76422271 2.4897963e-06 -1.4718012e-07 1.582781e-06      10.8619    16.292833    21.723799     3844.485 
      34            0    -832.6272    1.0142306   0.76422271    1.5142465   0.76422271 -1.9649706e-06 1.1406715e-07 -1.2467152e-06      10.8619    16.292833    21.723799     3844.485 
      35            0    -832.6272    1.0142306   0.76422271    1.5142465   0.76422271 1.9185005e-06 -1.097615e-07 1.2154506e-06      10.8619    16.292833    21.723799     3844.485 
      36            0    -832.6272    1.0142306   0.76422271    1.5142465   0.76422271 -1.9007613e-06 1.0798919e-07 -1.2034715e-06      10.8619    16.292833    21.723799     3844.485 
      37            0    -832.6272    1.0142306   0.76422271    1.5142465   0.76422271 1.7039542e-06 -9.6551004e-08 1.0785851e-06      10.8619    16.292833    21.723799     3844.485 
      38            0    -832.6272    1.0142306   0.76422271    1.5142465   0.76422271 -1.5376795e-06 8.7020422e-08 -9.7320532e-07      10.8619    16.292833    21.723799     3844.485 
      39            0    -832.6272    1.0142306   0.76422271    1.5142465   0.76422271 1.9093989e-06 -1.0805315e-07 1.2084622e-06      10.8619    16.292833    21.723799     3844.485 
      40            0    -832.6272    1.0142306   0.76422271    1.5142465   0.76422271 -1.5630148e-06 8.849367e-08 -9.8922937e-07      10.8619    16.292833    21.723799     3844.485 
      41            0    -832.6272    1.0142306   0.76422271    1.5142465   0.76422271 1.3882322e-06 -7.8551147e-08 8.7854827e-07      10.8619    16.292833    21.723799     3844.485 
      42            0    -832.6272    1.0142306   0.76422271    1.5142465   0.76422271 -2.2620657e-06 1.2792335e-07 -1.4314801e-06      10.8619    16.292833    21.723799     3844.485 
      43            0    -832.6272    1.0142306   0.76422271    1.5142465   0.76422271 1.3686135e-06 -7.7391058e-08 8.6609638e-07      10.8619    16.292833    21.723799     3844.485 
      44            0    -832.6272    1.0142306   0.76422271    1.5142465   0.76422271 -1.5719871e-06 8.8848658e-08 -9.9485134e-07      10.8619    16.292833    21.723799     3844.485 
      45            0    -832.6272    1.0142306   0.76422271    1.5142465   0.76422271 1.1761863e-06 -6.6399991e-08 7.4438946e-07      10.8619    16.292833    21.723799     3844.485 
      46            0    -832.6272    1.0142306   0.76422271    1.5142465   0.76422271 -7.2803678e-07 4.0938683e-08 -4.6082608e-07      10.8619    16.292833    21.723799     3844.485 
      47            0    -832.6272    1.0142306   0.76422271    1.5142465   0.76422271 3.2496445e-07 -1.8154468e-08 2.0572996e-07      10.8619    16.292833    21.723799     3844.485 
      48            0    -832.6272    1.0142306   0.76422271    1.5142465   0.76422271 -1.777279e-07 9.7539494e-09 -1.1250301e-07      10.8619    16.292833    21.723799     3844.485 
      49            0    -832.6272    1.0142306   0.76422271    1.5142465   0.76422271 6.7015266e-08 -3.515811e-09 4.2399801e-08      10.8619    16.292833    21.723799     3844.485 
      50            0    -832.6272    1.0142306   0.76422271    1.5142465   0.76422271 -3.0633111e-08 1.4333094e-09 -1.9399004e-08      10.8619    16.292833    21.723799     3844.485 
      51            0    -832.6272    1.0142306   0.76422271    1.5142465   0.76422271 2.0830254e-08 -6.5849101e-10 1.3320047e-08      10.8619    16.292833    21.723799     3844.485 
      52            0    -832.6272    1.0142306   0.76422271    1.5142465   0.76422271 -6.6342793e-09 -7.8869081e-11 -4.3561932e-09      10.8619    16.292833    21.723799     3844.485 
      53            0    -832.6272    1.0142306   0.76422271    1.5142465   0.76422271 3.0717026e-09 4.665659e-10 2.1966715e-09      10.8619    16.292833    21.723799     3844.485 
Loop time of 0.0089442 on 8 procs for 49 steps with 192 atoms

99.8% CPU use with 8 MPI tasks x no OpenMP threads

Minimization stats:
  Stopping criterion = force tolerance
  Energy initial, next-to-last, final = 
        -832.627199814     -832.627199982     -832.627199982
  Force two-norm initial, final = 0.00295832 7.32767e-11
  Force max component initial, final = 0.000321141 8.87941e-12
  Final line search alpha, max atom move = 1 8.87941e-12
  Iterations, force evaluations = 49 98

MPI task timing breakdown:
Section |  min time  |  avg time  |  max time  |%varavg| %total
---------------------------------------------------------------
Pair    | 0.0025622  | 0.0029333  | 0.003226   |   0.3 | 32.80
Neigh   | 0          | 0          | 0          |   0.0 |  0.00
Comm    | 0.0022327  | 0.0024839  | 0.0028868  |   0.4 | 27.77
Output  | 0.0014425  | 0.00149    | 0.0016616  |   0.2 | 16.66
Modify  | 0          | 0          | 0          |   0.0 |  0.00
Other   |            | 0.002037   |            |       | 22.78

Nlocal:    24 ave 26 max 21 min
Histogram: 1 0 0 0 1 0 3 0 2 1
Nghost:    249 ave 252 max 247 min
Histogram: 1 0 2 0 3 0 1 0 0 1
Neighs:    0 ave 0 max 0 min
Histogram: 8 0 0 0 0 0 0 0 0 0
FullNghs:  672 ave 728 max 588 min
Histogram: 1 0 0 0 1 0 3 0 2 1

Total # of neighbors = 5376
Ave neighs/atom = 28
Neighbor list builds = 0
Dangerous builds = 0

# Obtain new stress tensor

variable tmp equal pxx
variable pxx1 equal ${tmp}
variable pxx1 equal 0.764222708859192
variable tmp equal pyy
variable pyy1 equal ${tmp}
variable pyy1 equal 1.51424647199992
variable tmp equal pzz
variable pzz1 equal ${tmp}
variable pzz1 equal 0.764222708857078
variable tmp equal pxy
variable pxy1 equal ${tmp}
variable pxy1 equal 3.07170258376968e-09
variable tmp equal pxz
variable pxz1 equal ${tmp}
variable pxz1 equal 4.66565904584462e-10
variable tmp equal pyz
variable pyz1 equal ${tmp}
variable pyz1 equal 2.19667151113344e-09

# Compute elastic constant from pressure tensor

variable C1neg equal ${d1}
variable C1neg equal 76.4222708867688
variable C2neg equal ${d2}
variable C2neg equal 151.424647207371
variable C3neg equal ${d3}
variable C3neg equal 76.4222708855328
variable C4neg equal ${d4}
variable C4neg equal 2.39477470222224e-07
variable C5neg equal ${d5}
variable C5neg equal 3.83735189459619e-08
variable C6neg equal ${d6}
variable C6neg equal 2.48300973607058e-07

# Reset box and simulation parameters

clear
box tilt large
read_restart restart.equil
  restoring atom style atomic from restart
  triclinic box = (-0.000949778 -0.00142467 -0.00189956) to (10.8609 16.2914 21.7219) with tilt (0 0 0)
  1 by 2 by 4 MPI processor grid
  pair style sw stores no restart info
  192 atoms
include potential.mod
# NOTE: This script can be modified for different pair styles
# See in.elastic for more info.

# Choose potential
pair_style	sw
pair_coeff * * Si.sw Si
Reading potential file Si.sw with DATE: 2007-06-11

# Setup neighbor style
neighbor 1.0 nsq
neigh_modify once no every 1 delay 0 check yes

# Setup minimization style
min_style	     cg
min_modify	     dmax ${dmax} line quadratic
min_modify	     dmax 0.01 line quadratic

# Setup output
thermo		1
thermo_style custom step temp pe press pxx pyy pzz pxy pxz pyz lx ly lz vol
thermo_modify norm no

# Positive deformation

variable delta equal ${up}*${len0}
variable delta equal 1e-06*${len0}
variable delta equal 1e-06*16.2928493352156
variable deltaxy equal ${up}*xy
variable deltaxy equal 1e-06*xy
variable deltaxz equal ${up}*xz
variable deltaxz equal 1e-06*xz
variable deltayz equal ${up}*yz
variable deltayz equal 1e-06*yz
if "${dir} == 1" then    "change_box all x delta 0 ${delta} xy delta ${deltaxy} xz delta ${deltaxz} remap units box"
if "${dir} == 2" then    "change_box all y delta 0 ${delta} yz delta ${deltayz} remap units box"
change_box all y delta 0 ${delta} yz delta ${deltayz} remap units box
change_box all y delta 0 1.62928493352156e-05 yz delta ${deltayz} remap units box
change_box all y delta 0 1.62928493352156e-05 yz delta 0 remap units box
  triclinic box = (-0.000949778 -0.00142467 -0.00189956) to (10.8609 16.2914 21.7219) with tilt (0 0 0)
  triclinic box = (-0.000949778 -0.00142467 -0.00189956) to (10.8609 16.2914 21.7219) with tilt (0 0 0)
if "${dir} == 3" then    "change_box all z delta 0 ${delta} remap units box"
if "${dir} == 4" then    "change_box all yz delta ${delta} remap units box"
if "${dir} == 5" then    "change_box all xz delta ${delta} remap units box"
if "${dir} == 6" then    "change_box all xy delta ${delta} remap units box"

# Relax atoms positions

minimize ${etol} ${ftol} ${maxiter} ${maxeval}
minimize 0 ${ftol} ${maxiter} ${maxeval}
minimize 0 1e-10 ${maxiter} ${maxeval}
minimize 0 1e-10 100 ${maxeval}
minimize 0 1e-10 100 1000
Neighbor list info ...
  update every 1 steps, delay 0 steps, check yes
  max neighbors/atom: 2000, page size: 100000
  master list distance cutoff = 4.77118
  ghost atom cutoff = 4.77118
  1 neighbor lists, perpetual/occasional/extra = 1 0 0
  (1) pair sw, perpetual
      attributes: full, newton on
      pair build: full/nsq
      stencil: none
      bin: none
Per MPI rank memory allocation (min/avg/max) = 3.803 | 3.803 | 3.803 Mbytes
Step Temp PotEng Press Pxx Pyy Pzz Pxy Pxz Pyz Lx Ly Lz Volume 
       4            0    -832.6272   -1.0141646  -0.76415279   -1.5141823  -0.76415857    1.0338551   0.19830445   0.36391573      10.8619    16.292866    21.723799    3844.4927 
       5            0    -832.6272   -1.0142255  -0.76421809   -1.5142409  -0.76421761  -0.26570124 -0.050964916 -0.093529291      10.8619    16.292866    21.723799    3844.4927 
       6            0    -832.6272   -1.0142271  -0.76421955   -1.5142429  -0.76421898   0.25791087  0.049470951  0.090786011      10.8619    16.292866    21.723799    3844.4927 
       7            0    -832.6272   -1.0142271  -0.76421906    -1.514243  -0.76421922  -0.22572954 -0.043297876 -0.079458334      10.8619    16.292866    21.723799    3844.4927 
       8            0    -832.6272    -1.014227  -0.76421901   -1.5142431  -0.76421904   0.12788954   0.02453082   0.04501777      10.8619    16.292866    21.723799    3844.4927 
       9            0    -832.6272   -1.0142271  -0.76421903   -1.5142431  -0.76421901 -0.071642914 -0.013741942 -0.025218626      10.8619    16.292866    21.723799    3844.4927 
      10            0    -832.6272    -1.014227  -0.76421901   -1.5142431    -0.764219  0.035943077  0.006894185  0.012652021      10.8619    16.292866    21.723799    3844.4927 
      11            0    -832.6272    -1.014227    -0.764219   -1.5142431  -0.76421897 -0.022330059 -0.0042830189 -0.0078601469      10.8619    16.292866    21.723799    3844.4927 
      12            0    -832.6272    -1.014227  -0.76421899   -1.5142431  -0.76421898  0.011993195 0.0023002681 0.0042215272      10.8619    16.292866    21.723799    3844.4927 
      13            0    -832.6272    -1.014227  -0.76421899   -1.5142431  -0.76421897 -0.0061447917 -0.0011785008 -0.0021628887      10.8619    16.292866    21.723799    3844.4927 
      14            0    -832.6272    -1.014227  -0.76421899   -1.5142431  -0.76421898 0.0039512392 0.00075771744 0.0013907374      10.8619    16.292866    21.723799    3844.4927 
      15            0    -832.6272    -1.014227  -0.76421898   -1.5142431  -0.76421897 -0.0019701265 -0.00037772677 -0.00069338846      10.8619    16.292866    21.723799    3844.4927 
      16            0    -832.6272    -1.014227  -0.76421898   -1.5142431  -0.76421898 0.0012302658 0.0002357558 0.00043292348      10.8619    16.292866    21.723799    3844.4927 
      17            0    -832.6272    -1.014227  -0.76421898   -1.5142431  -0.76421898 -0.00085160254 -0.00016307008 -0.00029960348      10.8619    16.292866    21.723799    3844.4927 
      18            0    -832.6272    -1.014227  -0.76421898   -1.5142431  -0.76421898 0.00059016419 0.00011282788 0.00020752086      10.8619    16.292866    21.723799    3844.4927 
      19            0    -832.6272    -1.014227  -0.76421898   -1.5142431  -0.76421898 -0.00035709156 -6.8140118e-05 -0.00012549049      10.8619    16.292866    21.723799    3844.4927 
      20            0    -832.6272    -1.014227  -0.76421898   -1.5142431  -0.76421898 0.00018366112 3.489456e-05 6.4454481e-05      10.8619    16.292866    21.723799    3844.4927 
      21            0    -832.6272    -1.014227  -0.76421898   -1.5142431  -0.76421898 -9.6085605e-05 -1.8084618e-05 -3.3620829e-05      10.8619    16.292866    21.723799    3844.4927 
      22            0    -832.6272    -1.014227  -0.76421898   -1.5142431  -0.76421898 4.5773418e-05 8.4527283e-06 1.5921766e-05      10.8619    16.292866    21.723799    3844.4927 
      23            0    -832.6272    -1.014227  -0.76421898   -1.5142431  -0.76421898 -1.9656235e-05 -3.3906654e-06 -6.6977168e-06      10.8619    16.292866    21.723799    3844.4927 
      24            0    -832.6272    -1.014227  -0.76421898   -1.5142431  -0.76421898 1.1443408e-05 1.5874587e-06 3.6739551e-06      10.8619    16.292866    21.723799    3844.4927 
      25            0    -832.6272    -1.014227  -0.76421898   -1.5142431  -0.76421898 -3.3840287e-06 -1.4714319e-07 -8.9845056e-07      10.8619    16.292866    21.723799    3844.4927 
      26            0    -832.6272    -1.014227  -0.76421898   -1.5142431  -0.76421898 1.1908054e-06 -7.4580956e-07 -1.4905219e-07      10.8619    16.292866    21.723799    3844.4927 
      27            0    -832.6272    -1.014227  -0.76421898   -1.5142431  -0.76421898 4.5770631e-07 1.1970082e-06 8.0804683e-07      10.8619    16.292866    21.723799    3844.4927 
      28            0    -832.6272    -1.014227  -0.76421898   -1.5142431  -0.76421898 -1.0024544e-06 -1.14081e-06 -9.0596793e-07      10.8619    16.292866    21.723799    3844.4927 
      29            0    -832.6272    -1.014227  -0.76421898   -1.5142431  -0.76421898 1.8277096e-06 1.5888067e-06 1.3652558e-06      10.8619    16.292866    21.723799    3844.4927 
      30            0    -832.6272    -1.014227  -0.76421898   -1.5142431  -0.76421898 -1.7179833e-06 -1.3700234e-06 -1.2112916e-06      10.8619    16.292866    21.723799    3844.4927 
      31            0    -832.6272    -1.014227  -0.76421898   -1.5142431  -0.76421898 1.9827096e-06 1.5237143e-06 1.3644048e-06      10.8619    16.292866    21.723799    3844.4927 
      32            0    -832.6272    -1.014227  -0.76421898   -1.5142431  -0.76421898 -2.0905413e-06 -1.5790419e-06 -1.4225624e-06      10.8619    16.292866    21.723799    3844.4927 
      33            0    -832.6272    -1.014227  -0.76421898   -1.5142431  -0.76421898 2.1823594e-06 1.6372562e-06 1.4785746e-06      10.8619    16.292866    21.723799    3844.4927 
      34            0    -832.6272    -1.014227  -0.76421898   -1.5142431  -0.76421898 -1.7233824e-06 -1.2882268e-06 -1.1649086e-06      10.8619    16.292866    21.723799    3844.4927 
      35            0    -832.6272    -1.014227  -0.76421898   -1.5142431  -0.76421898 1.6834086e-06 1.2548036e-06 1.1359052e-06      10.8619    16.292866    21.723799    3844.4927 
      36            0    -832.6272    -1.014227  -0.76421898   -1.5142431  -0.76421898 -1.6683296e-06 -1.2418583e-06 -1.1247807e-06      10.8619    16.292866    21.723799    3844.4927 
      37            0    -832.6272    -1.014227  -0.76421898   -1.5142431  -0.76421898 1.4956685e-06 1.112658e-06 1.0079752e-06      10.8619    16.292866    21.723799    3844.4927 
      38            0    -832.6272    -1.014227  -0.76421898   -1.5142431  -0.76421898 -1.3496403e-06 -1.003561e-06 -9.093217e-07      10.8619    16.292866    21.723799    3844.4927 
      39            0    -832.6272    -1.014227  -0.76421898   -1.5142431  -0.76421898 1.6748807e-06 1.2451815e-06 1.1283746e-06      10.8619    16.292866    21.723799    3844.4927 
      40            0    -832.6272    -1.014227  -0.76421898   -1.5142431  -0.76421898 -1.3690338e-06 -1.0177339e-06 -9.223505e-07      10.8619    16.292866    21.723799    3844.4927 
      41            0    -832.6272    -1.014227  -0.76421898   -1.5142431  -0.76421898 1.2125017e-06 9.0147338e-07 8.168982e-07      10.8619    16.292866    21.723799    3844.4927 
      42            0    -832.6272    -1.014227  -0.76421898   -1.5142431  -0.76421898 -1.9617833e-06 -1.4586752e-06 -1.3217157e-06      10.8619    16.292866    21.723799    3844.4927 
      43            0    -832.6272    -1.014227  -0.76421898   -1.5142431  -0.76421898 1.1747447e-06 8.734626e-07 7.9137373e-07      10.8619    16.292866    21.723799    3844.4927 
      44            0    -832.6272    -1.014227  -0.76421898   -1.5142431  -0.76421898 -1.3262274e-06 -9.8601546e-07 -8.9334098e-07      10.8619    16.292866    21.723799    3844.4927 
      45            0    -832.6272    -1.014227  -0.76421898   -1.5142431  -0.76421898 9.7161772e-07 7.2223579e-07 6.5445297e-07      10.8619    16.292866    21.723799    3844.4927 
      46            0    -832.6272    -1.014227  -0.76421898   -1.5142431  -0.76421898 -5.911201e-07 -4.3930584e-07 -3.9814647e-07      10.8619    16.292866    21.723799    3844.4927 
      47            0    -832.6272    -1.014227  -0.76421898   -1.5142431  -0.76421898 2.6050096e-07 1.9363231e-07 1.7547518e-07      10.8619    16.292866    21.723799    3844.4927 
      48            0    -832.6272    -1.014227  -0.76421898   -1.5142431  -0.76421898 -1.4161422e-07 -1.0546409e-07 -9.5468688e-08      10.8619    16.292866    21.723799    3844.4927 
      49            0    -832.6272    -1.014227  -0.76421898   -1.5142431  -0.76421898 5.3038574e-08 3.9692806e-08 3.5896676e-08      10.8619    16.292866    21.723799    3844.4927 
      50            0    -832.6272    -1.014227  -0.76421898   -1.5142431  -0.76421898 -2.4092116e-08 -1.8157488e-08 -1.6368749e-08      10.8619    16.292866    21.723799    3844.4927 
      51            0    -832.6272    -1.014227  -0.76421898   -1.5142431  -0.76421898 1.6357709e-08 1.2424936e-08 1.113434e-08      10.8619    16.292866    21.723799    3844.4927 
      52            0    -832.6272    -1.014227  -0.76421898   -1.5142431  -0.76421898 -5.2252788e-09 -3.9516231e-09 -3.529559e-09      10.8619    16.292866    21.723799    3844.4927 
      53            0    -832.6272    -1.014227  -0.76421898   -1.5142431  -0.76421898 2.4729451e-09 1.8347288e-09 1.5949849e-09      10.8619    16.292866    21.723799    3844.4927 
Loop time of 0.00899707 on 8 procs for 49 steps with 192 atoms

100.0% CPU use with 8 MPI tasks x no OpenMP threads

Minimization stats:
  Stopping criterion = force tolerance
  Energy initial, next-to-last, final = 
        -832.627199814     -832.627199982     -832.627199982
  Force two-norm initial, final = 0.00295832 7.32772e-11
  Force max component initial, final = 0.00032114 8.93311e-12
  Final line search alpha, max atom move = 1 8.93311e-12
  Iterations, force evaluations = 49 98

MPI task timing breakdown:
Section |  min time  |  avg time  |  max time  |%varavg| %total
---------------------------------------------------------------
Pair    | 0.0026639  | 0.0029672  | 0.0032277  |   0.3 | 32.98
Neigh   | 0          | 0          | 0          |   0.0 |  0.00
Comm    | 0.0022297  | 0.0024521  | 0.0027262  |   0.3 | 27.25
Output  | 0.0014348  | 0.0014875  | 0.0017187  |   0.2 | 16.53
Modify  | 0          | 0          | 0          |   0.0 |  0.00
Other   |            | 0.00209    |            |       | 23.23

Nlocal:    24 ave 26 max 21 min
Histogram: 1 0 0 0 1 0 3 0 2 1
Nghost:    249 ave 252 max 247 min
Histogram: 1 0 2 0 3 0 1 0 0 1
Neighs:    0 ave 0 max 0 min
Histogram: 8 0 0 0 0 0 0 0 0 0
FullNghs:  672 ave 728 max 588 min
Histogram: 1 0 0 0 1 0 3 0 2 1

Total # of neighbors = 5376
Ave neighs/atom = 28
Neighbor list builds = 0
Dangerous builds = 0

# Obtain new stress tensor

variable tmp equal pe
variable e1 equal ${tmp}
variable e1 equal -832.6271999823
variable tmp equal press
variable p1 equal ${tmp}
variable p1 equal -1.01422702213452
variable tmp equal pxx
variable pxx1 equal ${tmp}
variable pxx1 equal -0.76421897679284
variable tmp equal pyy
variable pyy1 equal ${tmp}
variable pyy1 equal -1.51424311281651
variable tmp equal pzz
variable pzz1 equal ${tmp}
variable pzz1 equal -0.764218976794222
variable tmp equal pxy
variable pxy1 equal ${tmp}
variable pxy1 equal 2.47294508117635e-09
variable tmp equal pxz
variable pxz1 equal ${tmp}
variable pxz1 equal 1.8347287967906e-09
variable tmp equal pyz
variable pyz1 equal ${tmp}
variable pyz1 equal 1.59498488534325e-09

# Compute elastic constant from pressure tensor

variable C1pos equal ${d1}
variable C1pos equal 76.4218976784343
variable C2pos equal ${d2}
variable C2pos equal 151.424311274272
variable C3pos equal ${d3}
variable C3pos equal 76.4218976795972
variable C4pos equal ${d4}
variable C4pos equal -1.79308807643205e-07
variable C5pos equal ${d5}
variable C5pos equal -1.75189808166576e-07
variable C6pos equal ${d6}
variable C6pos equal -1.88425223347725e-07

# Combine positive and negative

variable C1${dir} equal 0.5*(${C1neg}+${C1pos})
variable C12 equal 0.5*(${C1neg}+${C1pos})
variable C12 equal 0.5*(76.4222708867688+${C1pos})
variable C12 equal 0.5*(76.4222708867688+76.4218976784343)
variable C2${dir} equal 0.5*(${C2neg}+${C2pos})
variable C22 equal 0.5*(${C2neg}+${C2pos})
variable C22 equal 0.5*(151.424647207371+${C2pos})
variable C22 equal 0.5*(151.424647207371+151.424311274272)
variable C3${dir} equal 0.5*(${C3neg}+${C3pos})
variable C32 equal 0.5*(${C3neg}+${C3pos})
variable C32 equal 0.5*(76.4222708855328+${C3pos})
variable C32 equal 0.5*(76.4222708855328+76.4218976795972)
variable C4${dir} equal 0.5*(${C4neg}+${C4pos})
variable C42 equal 0.5*(${C4neg}+${C4pos})
variable C42 equal 0.5*(2.39477470222224e-07+${C4pos})
variable C42 equal 0.5*(2.39477470222224e-07+-1.79308807643205e-07)
variable C5${dir} equal 0.5*(${C5neg}+${C5pos})
variable C52 equal 0.5*(${C5neg}+${C5pos})
variable C52 equal 0.5*(3.83735189459619e-08+${C5pos})
variable C52 equal 0.5*(3.83735189459619e-08+-1.75189808166576e-07)
variable C6${dir} equal 0.5*(${C6neg}+${C6pos})
variable C62 equal 0.5*(${C6neg}+${C6pos})
variable C62 equal 0.5*(2.48300973607058e-07+${C6pos})
variable C62 equal 0.5*(2.48300973607058e-07+-1.88425223347725e-07)

# Delete dir to make sure it is not reused

variable dir delete

# uzz Perturbation

variable dir equal 3
include displace.mod
# NOTE: This script should not need to be
# modified. See in.elastic for more info.
#
# Find which reference length to use

if "${dir} == 1" then    "variable len0 equal ${lx0}"
if "${dir} == 2" then    "variable len0 equal ${ly0}"
if "${dir} == 3" then    "variable len0 equal ${lz0}"
variable len0 equal ${lz0}
variable len0 equal 21.7237991136209
if "${dir} == 4" then    "variable len0 equal ${lz0}"
if "${dir} == 5" then    "variable len0 equal ${lz0}"
if "${dir} == 6" then    "variable len0 equal ${ly0}"

# Reset box and simulation parameters

clear
box tilt large
read_restart restart.equil
  restoring atom style atomic from restart
  triclinic box = (-0.000949778 -0.00142467 -0.00189956) to (10.8609 16.2914 21.7219) with tilt (0 0 0)
  1 by 2 by 4 MPI processor grid
  pair style sw stores no restart info
  192 atoms
include potential.mod
# NOTE: This script can be modified for different pair styles
# See in.elastic for more info.

# Choose potential
pair_style	sw
pair_coeff * * Si.sw Si
Reading potential file Si.sw with DATE: 2007-06-11

# Setup neighbor style
neighbor 1.0 nsq
neigh_modify once no every 1 delay 0 check yes

# Setup minimization style
min_style	     cg
min_modify	     dmax ${dmax} line quadratic
min_modify	     dmax 0.01 line quadratic

# Setup output
thermo		1
thermo_style custom step temp pe press pxx pyy pzz pxy pxz pyz lx ly lz vol
thermo_modify norm no

# Negative deformation

variable delta equal -${up}*${len0}
variable delta equal -1e-06*${len0}
variable delta equal -1e-06*21.7237991136209
variable deltaxy equal -${up}*xy
variable deltaxy equal -1e-06*xy
variable deltaxz equal -${up}*xz
variable deltaxz equal -1e-06*xz
variable deltayz equal -${up}*yz
variable deltayz equal -1e-06*yz
if "${dir} == 1" then    "change_box all x delta 0 ${delta} xy delta ${deltaxy} xz delta ${deltaxz} remap units box"
if "${dir} == 2" then    "change_box all y delta 0 ${delta} yz delta ${deltayz} remap units box"
if "${dir} == 3" then    "change_box all z delta 0 ${delta} remap units box"
change_box all z delta 0 ${delta} remap units box
change_box all z delta 0 -2.17237991136209e-05 remap units box
  triclinic box = (-0.000949778 -0.00142467 -0.00189956) to (10.8609 16.2914 21.7219) with tilt (0 0 0)
if "${dir} == 4" then    "change_box all yz delta ${delta} remap units box"
if "${dir} == 5" then    "change_box all xz delta ${delta} remap units box"
if "${dir} == 6" then    "change_box all xy delta ${delta} remap units box"

# Relax atoms positions

minimize ${etol} ${ftol} ${maxiter} ${maxeval}
minimize 0 ${ftol} ${maxiter} ${maxeval}
minimize 0 1e-10 ${maxiter} ${maxeval}
minimize 0 1e-10 100 ${maxeval}
minimize 0 1e-10 100 1000
Neighbor list info ...
  update every 1 steps, delay 0 steps, check yes
  max neighbors/atom: 2000, page size: 100000
  master list distance cutoff = 4.77118
  ghost atom cutoff = 4.77118
  1 neighbor lists, perpetual/occasional/extra = 1 0 0
  (1) pair sw, perpetual
      attributes: full, newton on
      pair build: full/nsq
      stencil: none
      bin: none
Per MPI rank memory allocation (min/avg/max) = 3.803 | 3.803 | 3.803 Mbytes
Step Temp PotEng Press Pxx Pyy Pzz Pxy Pxz Pyz Lx Ly Lz Volume 
       4            0    -832.6272    1.0142931    0.7642889   0.76428352    1.5143069    1.0338602   0.19830544   0.36391759      10.8619    16.292849    21.723777     3844.485 
       5            0    -832.6272    1.0142321    0.7642236   0.76422488    1.5142478  -0.26570239 -0.050965137 -0.093529535      10.8619    16.292849    21.723777     3844.485 
       6            0    -832.6272    1.0142305   0.76422213   0.76422291    1.5142465   0.25791202  0.049471172  0.090786126      10.8619    16.292849    21.723777     3844.485 
       7            0    -832.6272    1.0142306   0.76422263   0.76422284    1.5142462  -0.22573093 -0.043298143 -0.079458438      10.8619    16.292849    21.723777     3844.485 
       8            0    -832.6272    1.0142306   0.76422267   0.76422274    1.5142464   0.12789056  0.024531017   0.04501777      10.8619    16.292849    21.723777     3844.485 
       9            0    -832.6272    1.0142306   0.76422266   0.76422269    1.5142464 -0.071643481 -0.013742051 -0.025218495      10.8619    16.292849    21.723777     3844.485 
      10            0    -832.6272    1.0142306   0.76422268    0.7642227    1.5142464  0.035943415 0.0068942496  0.012651853      10.8619    16.292849    21.723777     3844.485 
      11            0    -832.6272    1.0142306   0.76422269    0.7642227    1.5142465 -0.022330319 -0.0042830684 -0.007859918      10.8619    16.292849    21.723777     3844.485 
      12            0    -832.6272    1.0142306    0.7642227    0.7642227    1.5142465  0.011993367 0.0023003007 0.0042213102      10.8619    16.292849    21.723777     3844.485 
      13            0    -832.6272    1.0142306    0.7642227    0.7642227    1.5142465 -0.006144896 -0.0011785204 -0.0021626903      10.8619    16.292849    21.723777     3844.485 
      14            0    -832.6272    1.0142306    0.7642227    0.7642227    1.5142465 0.0039513354 0.00075773542 0.0013905127      10.8619    16.292849    21.723777     3844.485 
      15            0    -832.6272    1.0142306    0.7642227    0.7642227    1.5142465 -0.0019702055 -0.00037774163 -0.00069317391      10.8619    16.292849    21.723777     3844.485 
      16            0    -832.6272    1.0142306    0.7642227    0.7642227    1.5142465 0.0012303622 0.00023577405 0.00043264313      10.8619    16.292849    21.723777     3844.485 
      17            0    -832.6272    1.0142306   0.76422271   0.76422271    1.5142465 -0.00085171849 -0.00016309212 -0.00029925771      10.8619    16.292849    21.723777     3844.485 
      18            0    -832.6272    1.0142306   0.76422271   0.76422271    1.5142465 0.00059032075 0.00011285774 0.00020705919      10.8619    16.292849    21.723777     3844.485 
      19            0    -832.6272    1.0142306   0.76422271   0.76422271    1.5142465 -0.00035724016 -6.8168489e-05 -0.00012505239      10.8619    16.292849    21.723777     3844.485 
      20            0    -832.6272    1.0142306   0.76422271   0.76422271    1.5142465 0.00018380183 3.4921426e-05 6.404234e-05      10.8619    16.292849    21.723777     3844.485 
      21            0    -832.6272    1.0142306   0.76422271   0.76422271    1.5142465 -9.6231077e-05 -1.8112338e-05 -3.3193601e-05      10.8619    16.292849    21.723777     3844.485 
      22            0    -832.6272    1.0142306   0.76422271   0.76422271    1.5142465 4.5911148e-05 8.4789834e-06 1.5517814e-05      10.8619    16.292849    21.723777     3844.485 
      23            0    -832.6272    1.0142306   0.76422271   0.76422271    1.5142465 -1.9816292e-05 -3.4212288e-06 -6.2286515e-06      10.8619    16.292849    21.723777     3844.485 
      24            0    -832.6272    1.0142306   0.76422271   0.76422271    1.5142465 1.1699631e-05 1.6364641e-06 2.9235312e-06      10.8619    16.292849    21.723777     3844.485 
      25            0    -832.6272    1.0142306   0.76422271   0.76422271    1.5142465 -3.5958011e-06 -1.8771057e-07 -2.7835393e-07      10.8619    16.292849    21.723777     3844.485 
      26            0    -832.6272    1.0142306   0.76422271   0.76422271    1.5142465 1.6018771e-06 -6.669671e-07 -1.3524722e-06      10.8619    16.292849    21.723777     3844.485 
      27            0    -832.6272    1.0142306   0.76422271   0.76422271    1.5142465 -1.0427123e-08 1.1071527e-06  2.17825e-06      10.8619    16.292849    21.723777     3844.485 
      28            0    -832.6272    1.0142306   0.76422271   0.76422271    1.5142465 -6.0203625e-07 -1.0639746e-06 -2.0776978e-06      10.8619    16.292849    21.723777     3844.485 
      29            0    -832.6272    1.0142306   0.76422271   0.76422271    1.5142465 1.3048978e-06 1.488552e-06 2.8947362e-06      10.8619    16.292849    21.723777     3844.485 
[...]
if "${dir} == 3" then    "change_box all z delta 0 ${delta} remap units box"
if "${dir} == 4" then    "change_box all yz delta ${delta} remap units box"
if "${dir} == 5" then    "change_box all xz delta ${delta} remap units box"
if "${dir} == 6" then    "change_box all xy delta ${delta} remap units box"
change_box all xy delta ${delta} remap units box
change_box all xy delta 1.62928493352156e-05 remap units box
  triclinic box = (-0.000949778 -0.00142467 -0.00189956) to (10.8609 16.2914 21.7219) with tilt (1.62928e-05 0 0)

# Relax atoms positions

minimize ${etol} ${ftol} ${maxiter} ${maxeval}
minimize 0 ${ftol} ${maxiter} ${maxeval}
minimize 0 1e-10 ${maxiter} ${maxeval}
minimize 0 1e-10 100 ${maxeval}
minimize 0 1e-10 100 1000
Neighbor list info ...
  update every 1 steps, delay 0 steps, check yes
  max neighbors/atom: 2000, page size: 100000
  master list distance cutoff = 4.77118
  ghost atom cutoff = 4.77118
  1 neighbor lists, perpetual/occasional/extra = 1 0 0
  (1) pair sw, perpetual
      attributes: full, newton on
      pair build: full/nsq
      stencil: none
      bin: none
Per MPI rank memory allocation (min/avg/max) = 3.803 | 3.803 | 3.803 Mbytes
Step Temp PotEng Press Pxx Pyy Pzz Pxy Pxz Pyz Lx Ly Lz Volume 
       4            0    -832.6272 6.1275886e-05 6.4937534e-05 5.9308938e-05 5.9581187e-05 -0.063707094   0.19830475   0.36391636      10.8619    16.292849    21.723799    3844.4888 
       5            0    -832.6272 1.3324026e-06 1.2427433e-07 2.4300337e-06 1.4428998e-06  -0.69573019 -0.051969604 -0.095373597      10.8619    16.292849    21.723799    3844.4888 
       6            0    -832.6272 -3.9160018e-07 -1.0595598e-06  1.91767e-07 -3.070077e-07  -0.43150374  0.052664176   0.09664654      10.8619    16.292849    21.723799    3844.4888 
       7            0    -832.6272 -1.6697075e-07 -7.7571987e-07 4.3168822e-07 -1.5688062e-07  -0.69645431 -0.052256697 -0.095899479      10.8619    16.292849    21.723799    3844.4888 
       8            0    -832.6272 -2.5622412e-07 -5.4597962e-07 1.0463396e-07 -3.273267e-07  -0.47516553  0.035374085  0.064916798      10.8619    16.292849    21.723799    3844.4888 
       9            0    -832.6272 -1.8046867e-07 -6.8001135e-07 2.2222361e-07 -8.3618254e-08  -0.62558871 -0.024194035 -0.044399575      10.8619    16.292849    21.723799    3844.4888 
      10            0    -832.6272 -2.2460439e-07 -5.7911798e-07 1.2707908e-07 -2.2177428e-07  -0.52826961  0.014344806  0.026324717      10.8619    16.292849    21.723799    3844.4888 
      11            0    -832.6272 -1.7461776e-07 -6.1718754e-07 1.9532287e-07 -1.0198861e-07  -0.58954125 -0.0099192072 -0.018202951      10.8619    16.292849    21.723799    3844.4888 
      12            0    -832.6272 -1.9819241e-07 -5.7740636e-07 1.5150823e-07 -1.6867911e-07  -0.54967697 0.0058674785  0.010767463      10.8619    16.292849    21.723799    3844.4888 
      13            0    -832.6272 -1.8265304e-07 -5.9817492e-07 1.7838648e-07 -1.2817067e-07  -0.57259349 -0.0032078114 -0.0058865942      10.8619    16.292849    21.723799    3844.4888 
      14            0    -832.6272 -1.8953653e-07 -5.8101337e-07 1.6328467e-07 -1.5088087e-07  -0.55909025 0.0021397879 0.0039266135      10.8619    16.292849    21.723799    3844.4888 
      15            0    -832.6272 -1.8278866e-07 -5.8709359e-07 1.7485335e-07 -1.3612573e-07  -0.56724023 -0.0010878964 -0.0019962512      10.8619    16.292849    21.723799    3844.4888 
      16            0    -832.6272 -1.847759e-07 -5.8032582e-07 1.7038501e-07 -1.443869e-07    -0.562764 0.00068499589 0.0012568224      10.8619    16.292849    21.723799    3844.4888 
      17            0    -832.6272 -1.8167152e-07 -5.8172635e-07 1.7590276e-07 -1.3919098e-07  -0.56569703 -0.00047685219 -0.00087479699      10.8619    16.292849    21.723799    3844.4888 
      18            0    -832.6272 -1.8229351e-07 -5.777264e-07 1.7435757e-07 -1.4351169e-07  -0.56365681 0.00033153943 0.00060803048      10.8619    16.292849    21.723799    3844.4888 
      19            0    -832.6272 -1.8101952e-07 -5.7847811e-07 1.7682435e-07 -1.414048e-07  -0.56500089 -0.00020122676 -0.00036890979      10.8619    16.292849    21.723799    3844.4888 
      20            0    -832.6272 -1.8138511e-07 -5.7717706e-07 1.7619599e-07 -1.4317426e-07  -0.56423181 0.00010381071 0.00019015983      10.8619    16.292849    21.723799    3844.4888 
      21            0    -832.6272 -1.8098987e-07 -5.7738713e-07 1.7693454e-07 -1.4251703e-07  -0.56463057 -5.4573486e-05 -9.978987e-05      10.8619    16.292849    21.723799    3844.4888 
      22            0    -832.6272 -1.811106e-07 -5.7706931e-07 1.7670087e-07 -1.4296335e-07   -0.5644277 2.6229189e-05 4.7793875e-05      10.8619    16.292849    21.723799    3844.4888 
      23            0    -832.6272 -1.8102505e-07 -5.7710589e-07 1.7682671e-07 -1.4279596e-07  -0.56452199 -1.1596517e-05 -2.0885468e-05      10.8619    16.292849    21.723799    3844.4888 
      24            0    -832.6272 -1.8104783e-07 -5.7705088e-07 1.7677222e-07 -1.4286484e-07  -0.56447603 7.2876084e-06 1.2740912e-05      10.8619    16.292849    21.723799    3844.4888 
      25            0    -832.6272 -1.8101064e-07 -5.7705543e-07 1.7683363e-07 -1.4281012e-07  -0.56449906 -2.6025992e-06 -4.2528071e-06      10.8619    16.292849    21.723799    3844.4888 
      26            0    -832.6272 -1.809484e-07 -5.7698302e-07 1.7687566e-07 -1.4273783e-07  -0.56448996 2.0229206e-06 2.6966045e-06      10.8619    16.292849    21.723799    3844.4888 
      27            0    -832.6272 -1.8096579e-07 -5.7700815e-07 1.7685526e-07 -1.4274447e-07  -0.56449466 -1.2819041e-06 -1.195977e-06      10.8619    16.292849    21.723799    3844.4888 
      28            0    -832.6272 -1.8093948e-07 -5.7697946e-07 1.7688242e-07 -1.4272141e-07  -0.56449313 7.5208756e-07 3.9131469e-07      10.8619    16.292849    21.723799    3844.4888 
      29            0    -832.6272 -1.809976e-07 -5.7703408e-07 1.7682285e-07 -1.4278158e-07  -0.56449294 -6.8941944e-07 2.5556724e-08      10.8619    16.292849    21.723799    3844.4888 
      30            0    -832.6272 -1.8095155e-07 -5.7699011e-07 1.7686732e-07 -1.4273185e-07  -0.56449399 4.7685155e-07 -2.0976613e-07      10.8619    16.292849    21.723799    3844.4888 
      31            0    -832.6272 -1.8098948e-07 -5.7702329e-07 1.7682086e-07 -1.4276602e-07  -0.56449255 -4.7069549e-07 3.2851606e-07      10.8619    16.292849    21.723799    3844.4888 
      32            0    -832.6272 -1.8098635e-07 -5.7702357e-07 1.7683121e-07 -1.4276671e-07  -0.56449427 4.581585e-07 -3.8782158e-07      10.8619    16.292849    21.723799    3844.4888 
      33            0    -832.6272 -1.809781e-07 -5.7701281e-07 1.7684436e-07 -1.4276584e-07   -0.5644924 -4.6307685e-07 4.2146309e-07      10.8619    16.292849    21.723799    3844.4888 
      34            0    -832.6272 -1.8099525e-07 -5.770293e-07 1.7681709e-07 -1.4277354e-07  -0.56449414 3.5942603e-07 -3.3975943e-07      10.8619    16.292849    21.723799    3844.4888 
      35            0    -832.6272 -1.8096604e-07 -5.7700324e-07 1.7684869e-07 -1.4274357e-07  -0.56449261 -3.4656054e-07 3.3696637e-07      10.8619    16.292849    21.723799    3844.4888 
      36            0    -832.6272 -1.8097308e-07 -5.7701283e-07 1.7684399e-07 -1.427504e-07  -0.56449412 3.415033e-07 -3.3655955e-07      10.8619    16.292849    21.723799    3844.4888 
      37            0    -832.6272 -1.8097572e-07 -5.7700782e-07 1.7683385e-07 -1.4275318e-07  -0.56449269 -3.0576736e-07 3.0310579e-07      10.8619    16.292849    21.723799    3844.4888 
      38            0    -832.6272 -1.809494e-07 -5.7699148e-07 1.7686742e-07 -1.4272415e-07  -0.56449398 2.7615646e-07 -2.7469778e-07      10.8619    16.292849    21.723799    3844.4888 
      39            0    -832.6272 -1.809632e-07 -5.7700034e-07 1.7685344e-07 -1.4274269e-07   -0.5644926 -3.4483166e-07 3.4332452e-07      10.8619    16.292849    21.723799    3844.4888 
      40            0    -832.6272 -1.809528e-07 -5.7699721e-07 1.7686815e-07 -1.4272933e-07    -0.564494 2.8575783e-07 -2.846554e-07      10.8619    16.292849    21.723799    3844.4888 
      41            0    -832.6272 -1.8094191e-07 -5.7697943e-07 1.768726e-07 -1.4271889e-07  -0.56449279 -2.5985407e-07 2.5891882e-07      10.8619    16.292849    21.723799    3844.4888 
      42            0    -832.6272 -1.8100057e-07 -5.7703476e-07 1.7681101e-07 -1.4277796e-07  -0.56449437 4.5104431e-07 -4.4939154e-07      10.8619    16.292849    21.723799    3844.4888 
      43            0    -832.6272 -1.8096524e-07 -5.7700199e-07 1.7684554e-07 -1.4273928e-07  -0.56449269 -3.0232962e-07 3.0116209e-07      10.8619    16.292849    21.723799    3844.4888 
      44            0    -832.6272 -1.8100259e-07 -5.7704208e-07 1.7681561e-07 -1.427813e-07  -0.56449431 4.2438147e-07 -4.2275208e-07      10.8619    16.292849    21.723799    3844.4888 
      45            0    -832.6272 -1.8094997e-07 -5.7698681e-07 1.7686704e-07 -1.4273015e-07  -0.56449239 -4.3726865e-07 4.3548808e-07      10.8619    16.292849    21.723799    3844.4888 
      46            0    -832.6272 -1.8099502e-07 -5.7703069e-07 1.7682873e-07 -1.4278311e-07  -0.56449424 3.9346961e-07 -3.9178376e-07      10.8619    16.292849    21.723799    3844.4888 
      47            0    -832.6272 -1.8097203e-07 -5.770103e-07 1.7684408e-07 -1.4274986e-07  -0.56449278 -2.6269838e-07 2.6145847e-07      10.8619    16.292849    21.723799    3844.4888 
      48            0    -832.6272 -1.8095558e-07 -5.769963e-07 1.7685578e-07 -1.4272623e-07  -0.56449374 1.6952079e-07 -1.6849932e-07      10.8619    16.292849    21.723799    3844.4888 
      49            0    -832.6272 -1.8095472e-07 -5.7699054e-07 1.7686031e-07 -1.4273392e-07  -0.56449321 -6.9993503e-08 6.9388461e-08      10.8619    16.292849    21.723799    3844.4888 
      50            0    -832.6272 -1.8095881e-07 -5.7699817e-07 1.7685834e-07 -1.427366e-07  -0.56449344 3.3408947e-08 -3.2964553e-08      10.8619    16.292849    21.723799    3844.4888 
      51            0    -832.6272 -1.8097447e-07 -5.7700965e-07 1.7683905e-07 -1.4275282e-07  -0.56449332 -2.3159589e-08 2.2671317e-08      10.8619    16.292849    21.723799    3844.4888 
      52            0    -832.6272 -1.8101329e-07 -5.7705074e-07 1.7680395e-07 -1.4279307e-07  -0.56449338 7.5351292e-09 -7.2106891e-09      10.8619    16.292849    21.723799    3844.4888 
      53            0    -832.6272 -1.8101746e-07 -5.770482e-07 1.7679058e-07 -1.4279475e-07  -0.56449336 -3.591171e-09 3.2099436e-09      10.8619    16.292849    21.723799    3844.4888 
Loop time of 0.00829697 on 8 procs for 49 steps with 192 atoms

100.0% CPU use with 8 MPI tasks x no OpenMP threads

Minimization stats:
  Stopping criterion = force tolerance
  Energy initial, next-to-last, final = 
        -832.627199817     -832.627199983     -832.627199983
  Force two-norm initial, final = 0.00293549 7.32845e-11
  Force max component initial, final = 0.000305538 8.74941e-12
  Final line search alpha, max atom move = 1 8.74941e-12
  Iterations, force evaluations = 49 98

MPI task timing breakdown:
Section |  min time  |  avg time  |  max time  |%varavg| %total
---------------------------------------------------------------
Pair    | 0.0025112  | 0.0028621  | 0.0030414  |   0.3 | 34.50
Neigh   | 0          | 0          | 0          |   0.0 |  0.00
Comm    | 0.0019353  | 0.0020714  | 0.0023257  |   0.3 | 24.97
Output  | 0.0013755  | 0.0014557  | 0.0016517  |   0.2 | 17.54
Modify  | 0          | 0          | 0          |   0.0 |  0.00
Other   |            | 0.001908   |            |       | 22.99

Nlocal:    24 ave 26 max 21 min
Histogram: 1 0 0 0 1 0 3 0 2 1
Nghost:    249 ave 252 max 247 min
Histogram: 1 0 2 0 3 0 1 0 0 1
Neighs:    0 ave 0 max 0 min
Histogram: 8 0 0 0 0 0 0 0 0 0
FullNghs:  672 ave 728 max 588 min
Histogram: 1 0 0 0 1 0 3 0 2 1

Total # of neighbors = 5376
Ave neighs/atom = 28
Neighbor list builds = 0
Dangerous builds = 0

# Obtain new stress tensor

variable tmp equal pe
variable e1 equal ${tmp}
variable e1 equal -832.627199983438
variable tmp equal press
variable p1 equal ${tmp}
variable p1 equal -1.81017455865026e-07
variable tmp equal pxx
variable pxx1 equal ${tmp}
variable pxx1 equal -5.7704820249799e-07
variable tmp equal pyy
variable pyy1 equal ${tmp}
variable pyy1 equal 1.76790582614194e-07
variable tmp equal pzz
variable pzz1 equal ${tmp}
variable pzz1 equal -1.42794747711282e-07
variable tmp equal pxy
variable pxy1 equal ${tmp}
variable pxy1 equal -0.564493360878672
variable tmp equal pxz
variable pxz1 equal ${tmp}
variable pxz1 equal -3.59117098277221e-09
variable tmp equal pyz
variable pyz1 equal ${tmp}
variable pyz1 equal 3.20994364169695e-09

# Compute elastic constant from pressure tensor

variable C1pos equal ${d1}
variable C1pos equal 5.7703970603624e-05
variable C2pos equal ${d2}
variable C2pos equal -1.76864377236871e-05
variable C3pos equal ${d3}
variable C3pos equal 1.42796497287237e-05
variable C4pos equal ${d4}
variable C4pos equal -3.40804683278575e-07
variable C5pos equal ${d5}
variable C5pos equal 3.67400169789705e-07
variable C6pos equal ${d6}
variable C6pos equal 56.4493361467365

# Combine positive and negative

variable C1${dir} equal 0.5*(${C1neg}+${C1pos})
variable C16 equal 0.5*(${C1neg}+${C1pos})
variable C16 equal 0.5*(-5.77011934594111e-05+${C1pos})
variable C16 equal 0.5*(-5.77011934594111e-05+5.7703970603624e-05)
variable C2${dir} equal 0.5*(${C2neg}+${C2pos})
variable C26 equal 0.5*(${C2neg}+${C2pos})
variable C26 equal 0.5*(1.76901193432748e-05+${C2pos})
variable C26 equal 0.5*(1.76901193432748e-05+-1.76864377236871e-05)
variable C3${dir} equal 0.5*(${C3neg}+${C3pos})
variable C36 equal 0.5*(${C3neg}+${C3pos})
variable C36 equal 0.5*(-1.42760242780125e-05+${C3pos})
variable C36 equal 0.5*(-1.42760242780125e-05+1.42796497287237e-05)
variable C4${dir} equal 0.5*(${C4neg}+${C4pos})
variable C46 equal 0.5*(${C4neg}+${C4pos})
variable C46 equal 0.5*(1.96005121951948e-07+${C4pos})
variable C46 equal 0.5*(1.96005121951948e-07+-3.40804683278575e-07)
variable C5${dir} equal 0.5*(${C5neg}+${C5pos})
variable C56 equal 0.5*(${C5neg}+${C5pos})
variable C56 equal 0.5*(1.01358567978344e-07+${C5pos})
variable C56 equal 0.5*(1.01358567978344e-07+3.67400169789705e-07)
variable C6${dir} equal 0.5*(${C6neg}+${C6pos})
variable C66 equal 0.5*(${C6neg}+${C6pos})
variable C66 equal 0.5*(56.4493369493122+${C6pos})
variable C66 equal 0.5*(56.4493369493122+56.4493361467365)

# Delete dir to make sure it is not reused

variable dir delete

# Output final values

variable C11all equal ${C11}
variable C11all equal 151.42447926324
variable C22all equal ${C22}
variable C22all equal 151.424479240821
variable C33all equal ${C33}
variable C33all equal 151.424479261071

variable C12all equal 0.5*(${C12}+${C21})
variable C12all equal 0.5*(76.4220842826016+${C21})
variable C12all equal 0.5*(76.4220842826016+76.4220842955066)
variable C13all equal 0.5*(${C13}+${C31})
variable C13all equal 0.5*(76.4220842938092+${C31})
variable C13all equal 0.5*(76.4220842938092+76.4220842959213)
variable C23all equal 0.5*(${C23}+${C32})
variable C23all equal 0.5*(76.4220842946101+${C32})
variable C23all equal 0.5*(76.4220842946101+76.422084282565)

variable C44all equal ${C44}
variable C44all equal 56.4493367294521
variable C55all equal ${C55}
variable C55all equal 56.4493367737331
variable C66all equal ${C66}
variable C66all equal 56.4493365480243

variable C14all equal 0.5*(${C14}+${C41})
variable C14all equal 0.5*(-4.41921890100287e-10+${C41})
variable C14all equal 0.5*(-4.41921890100287e-10+-7.58956803776068e-08)
variable C15all equal 0.5*(${C15}+${C51})
variable C15all equal 0.5*(9.03171965550674e-10+${C51})
variable C15all equal 0.5*(9.03171965550674e-10+-3.3477927969715e-09)
variable C16all equal 0.5*(${C16}+${C61})
variable C16all equal 0.5*(1.38857210645271e-09+${C61})
variable C16all equal 0.5*(1.38857210645271e-09+1.20905475531207e-07)

variable C24all equal 0.5*(${C24}+${C42})
variable C24all equal 0.5*(-6.01149689008235e-11+${C42})
variable C24all equal 0.5*(-6.01149689008235e-11+3.00843312895095e-08)
variable C25all equal 0.5*(${C25}+${C52})
variable C25all equal 0.5*(1.17151372915009e-09+${C52})
variable C25all equal 0.5*(1.17151372915009e-09+-6.84081446103071e-08)
variable C26all equal 0.5*(${C26}+${C62})
variable C26all equal 0.5*(1.84080979385012e-09+${C62})
variable C26all equal 0.5*(1.84080979385012e-09+2.99378751296665e-08)

variable C34all equal 0.5*(${C34}+${C43})
variable C34all equal 0.5*(-5.64012055899034e-10+${C43})
variable C34all equal 0.5*(-5.64012055899034e-10+1.22252658953269e-07)
variable C35all equal 0.5*(${C35}+${C53})
variable C35all equal 0.5*(4.80313441949908e-10+${C53})
variable C35all equal 0.5*(4.80313441949908e-10+5.08420476459811e-08)
variable C36all equal 0.5*(${C36}+${C63})
variable C36all equal 0.5*(1.81272535560055e-09+${C63})
variable C36all equal 0.5*(1.81272535560055e-09+-5.6186101297944e-08)

variable C45all equal 0.5*(${C45}+${C54})
variable C45all equal 0.5*(4.49477226570978e-08+${C54})
variable C45all equal 0.5*(4.49477226570978e-08+9.38733770854757e-08)
variable C46all equal 0.5*(${C46}+${C64})
variable C46all equal 0.5*(-7.23997806633135e-08+${C64})
variable C46all equal 0.5*(-7.23997806633135e-08+-6.1419425338296e-08)
variable C56all equal 0.5*(${C56}+${C65})
variable C56all equal 0.5*(2.34379368884025e-07+${C65})
variable C56all equal 0.5*(2.34379368884025e-07+-1.43077728822356e-07)

# For Stillinger-Weber silicon, the analytical results
# are known to be (E. R. Cowley, 1988):
#               C11 = 151.4 GPa
#               C12 = 76.4 GPa
#               C44 = 56.4 GPa

print "Elastic Constant C11all = ${C11all} ${cunits}"
Elastic Constant C11all = 151.42447926324 GPa
print "Elastic Constant C22all = ${C22all} ${cunits}"
Elastic Constant C22all = 151.424479240821 GPa
print "Elastic Constant C33all = ${C33all} ${cunits}"
Elastic Constant C33all = 151.424479261071 GPa

print "Elastic Constant C12all = ${C12all} ${cunits}"
Elastic Constant C12all = 76.4220842890541 GPa
print "Elastic Constant C13all = ${C13all} ${cunits}"
Elastic Constant C13all = 76.4220842948652 GPa
print "Elastic Constant C23all = ${C23all} ${cunits}"
Elastic Constant C23all = 76.4220842885875 GPa

print "Elastic Constant C44all = ${C44all} ${cunits}"
Elastic Constant C44all = 56.4493367294521 GPa
print "Elastic Constant C55all = ${C55all} ${cunits}"
Elastic Constant C55all = 56.4493367737331 GPa
print "Elastic Constant C66all = ${C66all} ${cunits}"
Elastic Constant C66all = 56.4493365480243 GPa

print "Elastic Constant C14all = ${C14all} ${cunits}"
Elastic Constant C14all = -3.81688011338535e-08 GPa
print "Elastic Constant C15all = ${C15all} ${cunits}"
Elastic Constant C15all = -1.22231041571041e-09 GPa
print "Elastic Constant C16all = ${C16all} ${cunits}"
Elastic Constant C16all = 6.11470238188299e-08 GPa

print "Elastic Constant C24all = ${C24all} ${cunits}"
Elastic Constant C24all = 1.50121081603043e-08 GPa
print "Elastic Constant C25all = ${C25all} ${cunits}"
Elastic Constant C25all = -3.36183154405785e-08 GPa
print "Elastic Constant C26all = ${C26all} ${cunits}"
Elastic Constant C26all = 1.58893424617583e-08 GPa

print "Elastic Constant C34all = ${C34all} ${cunits}"
Elastic Constant C34all = 6.0844323448685e-08 GPa
print "Elastic Constant C35all = ${C35all} ${cunits}"
Elastic Constant C35all = 2.56611805439655e-08 GPa
print "Elastic Constant C36all = ${C36all} ${cunits}"
Elastic Constant C36all = -2.71866879711717e-08 GPa

print "Elastic Constant C45all = ${C45all} ${cunits}"
Elastic Constant C45all = 6.94105498712867e-08 GPa
print "Elastic Constant C46all = ${C46all} ${cunits}"
Elastic Constant C46all = -6.69096030008047e-08 GPa
print "Elastic Constant C56all = ${C56all} ${cunits}"
Elastic Constant C56all = 4.56508200308345e-08 GPa

Total wall time: 0:00:00
