LAMMPS (4 Jan 2019)
# Pure Si crystal, qeq off, calculates stress-strain, no out.*.cfg

units		metal
atom_style	charge
dimension       3
boundary        p p p

lattice  	diamond 5.431
Lattice spacing in x,y,z = 5.431 5.431 5.431
region		box block 0 4 0 4 0 4
create_box	1 box
Created orthogonal box = (0 0 0) to (21.724 21.724 21.724)
  2 by 2 by 2 MPI processor grid
create_atoms	1 box
Created 512 atoms
  Time spent = 0.000955392 secs
mass		1 29.0
change_box  	all triclinic
  triclinic box = (0 0 0) to (21.724 21.724 21.724) with tilt (0 0 0)

velocity	all create 1.0 277387

pair_style	comb
pair_coeff	* * ffield.comb Si
Reading potential file ffield.comb with DATE: 2011-02-22

neighbor	0.5 bin
neigh_modify	every 20 delay 0 check no

fix		1 all box/relax aniso 0.0 vmax 0.001
timestep        0.00020

thermo_style	custom step temp etotal pe evdwl ecoul 		#lx ly lz vol pxx pyy pzz
thermo_modify	norm yes
thermo		1
minimize	1.0e-14  1.0e-20  1000  10000
WARNING: Using 'neigh_modify every 1 delay 0 check yes' setting during minimization (../min.cpp:168)
Neighbor list info ...
  update every 1 steps, delay 0 steps, check yes
  max neighbors/atom: 2000, page size: 100000
  master list distance cutoff = 12.5
  ghost atom cutoff = 12.5
  binsize = 6.25, bins = 4 4 4
  1 neighbor lists, perpetual/occasional/extra = 1 0 0
  (1) pair comb, perpetual
      attributes: full, newton on
      pair build: full/bin/atomonly
      stencil: full/bin/3d
      bin: standard
Per MPI rank memory allocation (min/avg/max) = 7.957 | 7.957 | 7.957 Mbytes
Step Temp TotEng PotEng E_vdwl E_coul 
       0            1   -4.6295947   -4.6297237   -4.6297237            0 
       1            1   -4.6295965   -4.6297255   -4.6297255            0 
       2            1   -4.6295965   -4.6297255   -4.6297255            0 
       3            1   -4.6295965   -4.6297255   -4.6297255            0 
Loop time of 0.0224685 on 8 procs for 3 steps with 512 atoms

95.9% CPU use with 8 MPI tasks x no OpenMP threads

Minimization stats:
  Stopping criterion = energy tolerance
  Energy initial, next-to-last, final = 
        -4.62972371535     -4.62972550325     -4.62972550325
  Force two-norm initial, final = 5.86582 3.95765e-08
  Force max component initial, final = 3.38663 2.28499e-08
  Final line search alpha, max atom move = 1 2.28499e-08
  Iterations, force evaluations = 3 6

MPI task timing breakdown:
Section |  min time  |  avg time  |  max time  |%varavg| %total
---------------------------------------------------------------
Pair    | 0.010502   | 0.014419   | 0.020547   |   2.4 | 64.17
Neigh   | 0          | 0          | 0          |   0.0 |  0.00
Comm    | 0.001326   | 0.0074517  | 0.011364   |   3.3 | 33.17
Output  | 4.146e-05  | 4.3391e-05 | 5.1288e-05 |   0.0 |  0.19
Modify  | 0          | 0          | 0          |   0.0 |  0.00
Other   |            | 0.0005543  |            |       |  2.47

Nlocal:    64 ave 95 max 45 min
Histogram: 1 0 3 0 3 0 0 0 0 1
Nghost:    2407 ave 2426 max 2376 min
Histogram: 1 0 0 0 0 3 0 0 3 1
Neighs:    0 ave 0 max 0 min
Histogram: 8 0 0 0 0 0 0 0 0 0
FullNghs:  26624 ave 39520 max 18720 min
Histogram: 1 0 3 0 3 0 0 0 0 1

Total # of neighbors = 212992
Ave neighs/atom = 416
Neighbor list builds = 0
Dangerous builds not checked
min_modify	dmax 0.2 line quadratic

unfix		1
run		1
WARNING: No fixes defined, atoms won't move (../verlet.cpp:55)
Per MPI rank memory allocation (min/avg/max) = 6.332 | 6.332 | 6.332 Mbytes
Step Temp TotEng PotEng E_vdwl E_coul 
       3            1   -4.6295965   -4.6297255   -4.6297255            0 
       4            1   -4.6295965   -4.6297255   -4.6297255            0 
Loop time of 0.00335363 on 8 procs for 1 steps with 512 atoms

Performance: 5.153 ns/day, 4.658 hours/ns, 298.184 timesteps/s
93.6% CPU use with 8 MPI tasks x no OpenMP threads

MPI task timing breakdown:
Section |  min time  |  avg time  |  max time  |%varavg| %total
---------------------------------------------------------------
Pair    | 0.0014949  | 0.0021184  | 0.0031429  |   1.0 | 63.17
Neigh   | 0          | 0          | 0          |   0.0 |  0.00
Comm    | 0.00018281 | 0.0012016  | 0.0018186  |   1.4 | 35.83
Output  | 1.9732e-05 | 2.524e-05  | 3.109e-05  |   0.0 |  0.75
Modify  | 3.4203e-07 | 4.3512e-07 | 5.0489e-07 |   0.0 |  0.01
Other   |            | 7.996e-06  |            |       |  0.24

Nlocal:    64 ave 95 max 45 min
Histogram: 1 0 3 0 3 0 0 0 0 1
Nghost:    2407 ave 2426 max 2376 min
Histogram: 1 0 0 0 0 3 0 0 3 1
Neighs:    0 ave 0 max 0 min
Histogram: 8 0 0 0 0 0 0 0 0 0
FullNghs:  26624 ave 39520 max 18720 min
Histogram: 1 0 3 0 3 0 0 0 0 1

Total # of neighbors = 212992
Ave neighs/atom = 416
Neighbor list builds = 0
Dangerous builds not checked

### copy lines after this to any input script for elastic calculations ###
## 		Elastic constants calculations: strain box, measure box stress
##		strain x, measure s_x, s_y, s_z, s_yz:
##                calculates C11, C12, C13 and C14

fix  		2 all deform 1 x scale 1.0001 remap x
compute   	perfx all stress/atom NULL pair
compute   	fx all reduce sum 		c_perfx[1] c_perfx[2] c_perfx[3] 		c_perfx[4] c_perfx[5] c_perfx[6]
thermo_style	custom step lx ly lz xy xz yz 		c_fx[1] c_fx[2] c_fx[3] c_fx[4] c_fx[5] c_fx[6]
WARNING: New thermo_style command, previous thermo_modify settings will be lost (../output.cpp:705)
run		10
Per MPI rank memory allocation (min/avg/max) = 7.082 | 7.082 | 7.082 Mbytes
Step Lx Ly Lz Xy Xz Yz c_fx[1] c_fx[2] c_fx[3] c_fx[4] c_fx[5] c_fx[6] 
       4    21.727916    21.727916    21.727916            0            0            0  0.036618019  0.036617395  0.036618656 -1.5159336e-06 -3.6631908e-06 -4.1963855e-07 
       5    21.728133    21.727916    21.727916            0            0            0  0.036617168  0.036618282  0.036618057 -1.6926287e-06 -1.9394669e-06 -1.1188743e-06 
       6     21.72835    21.727916    21.727916            0            0            0    146204.21    77325.824    77325.824 8.8505827e-07 9.3009829e-07 -5.6701362e-07 
       7    21.728568    21.727916    21.727916            0            0            0    292407.66    154648.07    154648.07 -2.1481503e-06 -1.823439e-06 -2.9220056e-07 
       8    21.728785    21.727916    21.727916            0            0            0    438610.41    231966.78    231966.78 -2.1832811e-06 -1.5513941e-06 -5.5603192e-06 
       9    21.729002    21.727916    21.727916            0            0            0    584812.43    309281.95    309281.95 2.3798504e-06 1.4600097e-06 4.9095364e-06 
      10    21.729219    21.727916    21.727916            0            0            0    731013.74    386593.58    386593.58 -3.5663922e-06 -1.0925411e-06 9.2862376e-06 
      11    21.729437    21.727916    21.727916            0            0            0    877214.34    463901.66    463901.66 -3.0656342e-06 -3.642557e-07 1.2280128e-05 
      12    21.729654    21.727916    21.727916            0            0            0    1023414.2    541206.21    541206.21 -1.6475146e-06 -1.850884e-06 1.303312e-05 
      13    21.729871    21.727916    21.727916            0            0            0    1169613.4    618507.22    618507.22 -2.0788486e-06 -2.3751255e-06 1.5246777e-05 
      14    21.730089    21.727916    21.727916            0            0            0    1315811.8    695804.69    695804.69 2.5096823e-06 -1.3477172e-07 1.5998372e-05 
Loop time of 0.0401671 on 8 procs for 10 steps with 512 atoms

Performance: 4.302 ns/day, 5.579 hours/ns, 248.960 timesteps/s
99.9% CPU use with 8 MPI tasks x no OpenMP threads

MPI task timing breakdown:
Section |  min time  |  avg time  |  max time  |%varavg| %total
---------------------------------------------------------------
Pair    | 0.017544   | 0.024727   | 0.036442   |   3.5 | 61.56
Neigh   | 0          | 0          | 0          |   0.0 |  0.00
Comm    | 0.0017469  | 0.013496   | 0.020679   |   4.7 | 33.60
Output  | 0.0018916  | 0.0019009  | 0.0019333  |   0.0 |  4.73
Modify  | 1.3447e-05 | 1.654e-05  | 2.033e-05  |   0.0 |  0.04
Other   |            | 2.704e-05  |            |       |  0.07

Nlocal:    64 ave 95 max 45 min
Histogram: 1 0 3 0 3 0 0 0 0 1
Nghost:    2407 ave 2426 max 2376 min
Histogram: 1 0 0 0 0 3 0 0 3 1
Neighs:    0 ave 0 max 0 min
Histogram: 8 0 0 0 0 0 0 0 0 0
FullNghs:  26624 ave 39520 max 18720 min
Histogram: 1 0 3 0 3 0 0 0 0 1

Total # of neighbors = 212992
Ave neighs/atom = 416
Neighbor list builds = 0
Dangerous builds not checked

##		strain z, measure s_z: calculates C33

fix  		2 all deform 1 z scale 1.0001 remap x
compute   	perfz all stress/atom NULL pair
compute   	fz all reduce sum 		c_perfz[1] c_perfz[2] c_perfz[3] 		c_perfz[4] c_perfz[5] c_perfz[6]
thermo_style	custom  step lx ly lz xy xz yz 		c_fz[1] c_fz[2] c_fz[3] c_fz[4] c_fz[5] c_fz[6]
run		10
Per MPI rank memory allocation (min/avg/max) = 7.832 | 7.832 | 7.832 Mbytes
Step Lx Ly Lz Xy Xz Yz c_fz[1] c_fz[2] c_fz[3] c_fz[4] c_fz[5] c_fz[6] 
      14    21.730089    21.727916    21.727916            0            0            0    1462009.6    773098.62    773098.62 -2.7745527e-06 -2.1998385e-06 2.3095032e-05 
      15    21.730089    21.727916    21.728133            0            0            0    1462009.6    773098.62    773098.62 -2.1098178e-06 -1.3037778e-06 2.2788735e-05 
      16    21.730089    21.727916     21.72835            0            0            0    1539307.7    850399.78    919275.13 -3.0278352e-06 2.8017124e-06 2.3067339e-05 
      17    21.730089    21.727916    21.728568            0            0            0    1616602.3     927697.4    1065450.9 -6.9077102e-06 -1.07074e-06 2.2798022e-05 
      18    21.730089    21.727916    21.728785            0            0            0    1693893.3    1004991.5      1211626 -2.4579015e-06 -5.9000426e-07 3.8142828e-06 
      19    21.730089    21.727916    21.729002            0            0            0    1771180.8      1082282    1357800.3 -2.1426176e-06 -7.9378497e-07 5.9435262e-06 
      20    21.730089    21.727916    21.729219            0            0            0    1848464.8      1159569      1503974 -3.1517045e-06 -2.1809502e-06 2.2637858e-05 
      21    21.730089    21.727916    21.729437            0            0            0    1925745.2    1236852.5    1650146.9 -2.3548623e-06 -2.5027562e-06 2.3536487e-05 
      22    21.730089    21.727916    21.729654            0            0            0    2003022.1    1314132.4    1796319.1 2.3630558e-06 -1.5469435e-06 2.3970815e-05 
      23    21.730089    21.727916    21.729871            0            0            0    2080295.4    1391408.8    1942490.6 -2.0902253e-06 -1.5194985e-06 1.6568917e-05 
      24    21.730089    21.727916    21.730089            0            0            0    2157565.2    1468681.6    2088661.4 -3.0435032e-06 -2.2409726e-06 1.7078713e-05 
Loop time of 0.0377396 on 8 procs for 10 steps with 512 atoms

Performance: 4.579 ns/day, 5.242 hours/ns, 264.973 timesteps/s
99.7% CPU use with 8 MPI tasks x no OpenMP threads

MPI task timing breakdown:
Section |  min time  |  avg time  |  max time  |%varavg| %total
---------------------------------------------------------------
Pair    | 0.017736   | 0.024372   | 0.03414    |   3.0 | 64.58
Neigh   | 0          | 0          | 0          |   0.0 |  0.00
Comm    | 0.0017359  | 0.011534   | 0.018172   |   4.4 | 30.56
Output  | 0.0017858  | 0.0017954  | 0.0018232  |   0.0 |  4.76
Modify  | 1.2739e-05 | 1.4187e-05 | 1.7721e-05 |   0.0 |  0.04
Other   |            | 2.44e-05   |            |       |  0.06

Nlocal:    64 ave 95 max 45 min
Histogram: 1 0 3 0 3 0 0 0 0 1
Nghost:    2407 ave 2426 max 2376 min
Histogram: 1 0 0 0 0 3 0 0 3 1
Neighs:    0 ave 0 max 0 min
Histogram: 8 0 0 0 0 0 0 0 0 0
FullNghs:  26624 ave 39520 max 18720 min
Histogram: 1 0 3 0 3 0 0 0 0 1

Total # of neighbors = 212992
Ave neighs/atom = 416
Neighbor list builds = 0
Dangerous builds not checked

##		strain yz, measure s_yz: calculates C44

fix  		2 all deform 1 yz erate 0.0001 remap x
compute   	perfyz all stress/atom NULL pair
compute   	fyz all reduce sum 		c_perfyz[1] c_perfyz[2] c_perfyz[3] 		c_perfyz[4] c_perfyz[5] c_perfyz[6]
thermo_style	custom  step lx ly lz xy xz yz 		c_fyz[1] c_fyz[2] c_fyz[3] c_fyz[4] c_fyz[5] c_fyz[6]
run		10
Per MPI rank memory allocation (min/avg/max) = 8.597 | 8.597 | 8.597 Mbytes
Step Lx Ly Lz Xy Xz Yz c_fyz[1] c_fyz[2] c_fyz[3] c_fyz[4] c_fyz[5] c_fyz[6] 
      24    21.730089    21.727916    21.730089            0            0            0    2234831.5    1545950.9    2234831.5 -1.035398e-06 -3.6663407e-06 1.7685775e-05 
      25    21.730089    21.727916    21.730089            0            0 4.3460177e-07    2234831.5    1545950.9    2234831.5 -1.5430302e-06 -1.5063726e-06 1.6993451e-05 
      26    21.730089    21.727916    21.730089            0            0 8.6920354e-07    2234831.5    1545950.9    2234831.5 -1.3427552e-06 -3.0410093e-06    243.66107 
      27    21.730089    21.727916    21.730089            0            0 1.3038053e-06    2234831.5    1545950.9    2234831.5 -2.1058081e-06 -1.0052515e-06    487.32213 
      28    21.730089    21.727916    21.730089            0            0 1.7384071e-06    2234831.5    1545950.9    2234831.5 -1.4324943e-06 -8.4316816e-07    730.98325 
      29    21.730089    21.727916    21.730089            0            0 2.1730089e-06    2234831.5    1545950.9    2234831.5 -1.7127733e-06 -2.535493e-07    974.64424 
      30    21.730089    21.727916    21.730089            0            0 2.6076106e-06    2234831.5    1545950.9    2234831.5 -1.6448724e-06 1.1524857e-06    1218.3053 
      31    21.730089    21.727916    21.730089            0            0 3.0422124e-06    2234831.5    1545950.9    2234831.5 -1.6835607e-06 1.4001169e-07    1461.9664 
      32    21.730089    21.727916    21.730089            0            0 3.4768142e-06    2234831.5    1545950.9    2234831.5 -1.4166558e-06 4.4130252e-07    1705.6275 
      33    21.730089    21.727916    21.730089            0            0 3.911416e-06    2234831.5    1545950.9    2234831.5 -1.4462131e-06 2.4784574e-06    1949.2885 
      34    21.730089    21.727916    21.730089            0            0 4.3460177e-06    2234831.5    1545950.9    2234831.5 -1.2874057e-06 1.1221836e-06    2192.9496 
Loop time of 0.0378028 on 8 procs for 10 steps with 512 atoms

Performance: 4.571 ns/day, 5.250 hours/ns, 264.530 timesteps/s
99.4% CPU use with 8 MPI tasks x no OpenMP threads

MPI task timing breakdown:
Section |  min time  |  avg time  |  max time  |%varavg| %total
---------------------------------------------------------------
Pair    | 0.017721   | 0.024429   | 0.034204   |   3.0 | 64.62
Neigh   | 0          | 0          | 0          |   0.0 |  0.00
Comm    | 0.0017638  | 0.011572   | 0.018292   |   4.4 | 30.61
Output  | 0.0017504  | 0.001761   | 0.001794   |   0.0 |  4.66
Modify  | 1.2494e-05 | 1.4409e-05 | 1.7569e-05 |   0.0 |  0.04
Other   |            | 2.601e-05  |            |       |  0.07

Nlocal:    64 ave 95 max 45 min
Histogram: 1 0 3 0 3 0 0 0 0 1
Nghost:    2407 ave 2426 max 2376 min
Histogram: 1 0 0 0 0 3 0 0 3 1
Neighs:    0 ave 0 max 0 min
Histogram: 8 0 0 0 0 0 0 0 0 0
FullNghs:  26624 ave 39520 max 18720 min
Histogram: 1 0 3 0 3 0 0 0 0 1

Total # of neighbors = 212992
Ave neighs/atom = 416
Neighbor list builds = 0
Dangerous builds not checked

##		strain xy, measure s_xy: calculates C66

fix  		2 all deform 1 xy erate 0.0001 remap x
compute   	perfxy all stress/atom NULL pair
compute   	fxy all reduce sum 		c_perfxy[1] c_perfxy[2] c_perfxy[3] 		c_perfxy[4] c_perfxy[5] c_perfxy[6]
thermo_style	custom  step lx ly lz xy xz yz 		c_fxy[1] c_fxy[2] c_fxy[3] c_fxy[4] c_fxy[5] c_fxy[6]
run		10
Per MPI rank memory allocation (min/avg/max) = 9.347 | 9.347 | 9.347 Mbytes
Step Lx Ly Lz Xy Xz Yz c_fxy[1] c_fxy[2] c_fxy[3] c_fxy[4] c_fxy[5] c_fxy[6] 
      34    21.730089    21.727916    21.730089            0            0 4.3460177e-06    2234831.5    1545950.9    2234831.5 -1.509845e-06 1.9313549e-06    2436.6106 
      35    21.730089    21.727916    21.730089 4.3455832e-07            0 4.3460177e-06    2234831.5    1545950.9    2234831.5 -2.1204459e-06 2.4922614e-06    2436.6106 
      36    21.730089    21.727916    21.730089 8.6911663e-07            0 4.3460177e-06    2234831.5    1545950.9    2234831.5    243.64726 -0.00012704989    2436.6106 
      37    21.730089    21.727916    21.730089 1.3036749e-06            0 4.3460177e-06    2234831.5    1545950.9    2234831.5    487.29458 -0.0002572527    2436.6107 
      38    21.730089    21.727916    21.730089 1.7382333e-06            0 4.3460177e-06    2234831.5    1545950.9    2234831.5    730.94189 -0.0003879994    2436.6107 
      39    21.730089    21.727916    21.730089 2.1727916e-06            0 4.3460177e-06    2234831.5    1545950.9    2234831.5    974.58916 -0.00051751081    2436.6107 
      40    21.730089    21.727916    21.730089 2.6073499e-06            0 4.3460177e-06    2234831.5    1545950.9    2234831.5    1218.2364 -0.00064919672    2436.6107 
      41    21.730089    21.727916    21.730089 3.0419082e-06            0 4.3460177e-06    2234831.5    1545950.9    2234831.5    1461.8837 -0.0007796755    2436.6107 
      42    21.730089    21.727916    21.730089 3.4764665e-06            0 4.3460177e-06    2234831.5    1545950.9    2234831.5     1705.531 -0.00090958658    2436.6107 
      43    21.730089    21.727916    21.730089 3.9110248e-06            0 4.3460177e-06    2234831.5    1545950.9    2234831.5    1949.1783 -0.0010397388    2436.6107 
      44    21.730089    21.727916    21.730089 4.3455832e-06            0 4.3460177e-06    2234831.5    1545950.9    2234831.5    2192.8256 -0.0011700783    2436.6107 
Loop time of 0.0384636 on 8 procs for 10 steps with 512 atoms

Performance: 4.493 ns/day, 5.342 hours/ns, 259.986 timesteps/s
99.8% CPU use with 8 MPI tasks x no OpenMP threads

MPI task timing breakdown:
Section |  min time  |  avg time  |  max time  |%varavg| %total
---------------------------------------------------------------
Pair    | 0.018974   | 0.024985   | 0.034864   |   2.9 | 64.96
Neigh   | 0          | 0          | 0          |   0.0 |  0.00
Comm    | 0.0016817  | 0.011575   | 0.017572   |   4.3 | 30.09
Output  | 0.0018372  | 0.0018621  | 0.0018779  |   0.0 |  4.84
Modify  | 1.3777e-05 | 1.5383e-05 | 1.8907e-05 |   0.0 |  0.04
Other   |            | 2.617e-05  |            |       |  0.07

Nlocal:    64 ave 92 max 48 min
Histogram: 2 1 1 1 1 1 0 0 0 1
Nghost:    2407 ave 2423 max 2379 min
Histogram: 1 0 0 0 1 1 1 1 1 2
Neighs:    0 ave 0 max 0 min
Histogram: 8 0 0 0 0 0 0 0 0 0
FullNghs:  26624 ave 38272 max 19968 min
Histogram: 2 1 1 1 1 1 0 0 0 1

Total # of neighbors = 212992
Ave neighs/atom = 416
Neighbor list builds = 0
Dangerous builds not checked
Total wall time: 0:00:00
