LAMMPS (4 Jan 2019)
units		metal
atom_style	charge
dimension       3
boundary        p p p

read_data  	data.m-HfO2
  triclinic box = (0 0 0) to (25.642 25.957 26.4845) with tilt (0 -4.46691 0)
  2 by 2 by 2 MPI processor grid
  reading atoms ...
  1500 atoms
#read_data  	data.t-HfO2
#read_data  	data.c-HfO2

mass		1 178.0
group    	type1 type 1
500 atoms in group type1
compute   	charge1 type1 property/atom q
compute   	q1 type1 reduce ave c_charge1
mass		2 16.00
group    	type2 type 2
1000 atoms in group type2
compute   	charge2 type2 property/atom q
compute   	q2 type2 reduce ave c_charge2

pair_style	comb
pair_coeff	* * ffield.comb Hf O
Reading potential file ffield.comb with DATE: 2011-02-22

neighbor	0.5 bin
neigh_modify	every 10 delay 10 check yes

timestep        0.00020

thermo_style	custom step temp etotal pe evdwl ecoul press vol lx ly lz xz c_q1 c_q2
thermo_modify	norm yes

fix		1 all nvt temp 300.0 300.0 0.1
thermo      	1
run    		1
Neighbor list info ...
  update every 10 steps, delay 10 steps, check yes
  max neighbors/atom: 2000, page size: 100000
  master list distance cutoff = 12.5
  ghost atom cutoff = 12.5
  binsize = 6.25, bins = 5 5 5
  1 neighbor lists, perpetual/occasional/extra = 1 0 0
  (1) pair comb, perpetual
      attributes: full, newton on
      pair build: full/bin/atomonly
      stencil: full/bin/3d
      bin: standard
Per MPI rank memory allocation (min/avg/max) = 7.11 | 7.111 | 7.113 Mbytes
Step Temp TotEng PotEng E_vdwl E_coul Press Volume Lx Ly Lz Xz c_q1 c_q2 
       0            0   -9.3995049   -9.3995049     5.256221   -14.655726    60985.254    17627.802       25.642       25.957      26.4845     -4.46691          3.6         -1.8 
       1  0.039315732   -9.3995035   -9.3995086    5.2562201   -14.655729    60983.797    17627.802       25.642       25.957      26.4845     -4.46691          3.6         -1.8 
Loop time of 0.0189153 on 8 procs for 1 steps with 1500 atoms

Performance: 0.914 ns/day, 26.271 hours/ns, 52.867 timesteps/s
100.0% CPU use with 8 MPI tasks x no OpenMP threads

MPI task timing breakdown:
Section |  min time  |  avg time  |  max time  |%varavg| %total
---------------------------------------------------------------
Pair    | 0.016233   | 0.017475   | 0.018618   |   0.7 | 92.38
Neigh   | 0          | 0          | 0          |   0.0 |  0.00
Comm    | 0.00021781 | 0.0013607  | 0.0026013  |   2.5 |  7.19
Output  | 5.0438e-05 | 5.19e-05   | 5.7853e-05 |   0.0 |  0.27
Modify  | 1.2784e-05 | 1.4158e-05 | 1.4808e-05 |   0.0 |  0.07
Other   |            | 1.394e-05  |            |       |  0.07

Nlocal:    187.5 ave 190 max 185 min
Histogram: 4 0 0 0 0 0 0 0 0 4
Nghost:    4650 ave 4652 max 4648 min
Histogram: 4 0 0 0 0 0 0 0 0 4
Neighs:    0 ave 0 max 0 min
Histogram: 8 0 0 0 0 0 0 0 0 0
FullNghs:  129688 ave 131400 max 127975 min
Histogram: 4 0 0 0 0 0 0 0 0 4

Total # of neighbors = 1037500
Ave neighs/atom = 691.667
Neighbor list builds = 0
Dangerous builds = 0
fix  		2 all qeq/comb 1 0.003 file fq.out
run    		5
Per MPI rank memory allocation (min/avg/max) = 7.735 | 7.736 | 7.738 Mbytes
Step Temp TotEng PotEng E_vdwl E_coul Press Volume Lx Ly Lz Xz c_q1 c_q2 
       1  0.039315732   -9.3995035   -9.3995086    5.2562201   -14.655729    60983.797    17627.802       25.642       25.957      26.4845     -4.46691    3.3579959    -1.678998 
       2   0.13734003   -10.041396   -10.041413    2.7214902   -12.762903   -130794.11    17627.802       25.642       25.957      26.4845     -4.46691    3.3579959    -1.678998 
       3    0.2686308   -10.041388   -10.041423    2.7214912   -12.762914   -130800.39    17627.802       25.642       25.957      26.4845     -4.46691    3.3579959    -1.678998 
       4   0.44445358   -10.041379   -10.041436    2.7214924   -12.762929   -130808.63    17627.802       25.642       25.957      26.4845     -4.46691    3.3579959    -1.678998 
       5   0.66458606   -10.041367   -10.041453    2.7214941   -12.762947   -130818.84    17627.802       25.642       25.957      26.4845     -4.46691    3.3579959    -1.678998 
       6   0.92875014   -10.041353   -10.041473     2.721496   -12.762969      -130831    17627.802       25.642       25.957      26.4845     -4.46691    3.3579959    -1.678998 
Loop time of 0.124253 on 8 procs for 5 steps with 1500 atoms

Performance: 0.695 ns/day, 34.515 hours/ns, 40.240 timesteps/s
99.5% CPU use with 8 MPI tasks x no OpenMP threads

MPI task timing breakdown:
Section |  min time  |  avg time  |  max time  |%varavg| %total
---------------------------------------------------------------
Pair    | 0.07857    | 0.081543   | 0.085541   |   0.8 | 65.63
Neigh   | 0          | 0          | 0          |   0.0 |  0.00
Comm    | 0.0011005  | 0.0051276  | 0.0081023  |   3.3 |  4.13
Output  | 0.0002433  | 0.00025042 | 0.00027473 |   0.0 |  0.20
Modify  | 0.037284   | 0.037291   | 0.037301   |   0.0 | 30.01
Other   |            | 4.176e-05  |            |       |  0.03

Nlocal:    187.5 ave 190 max 185 min
Histogram: 4 0 0 0 0 0 0 0 0 4
Nghost:    4650 ave 4652 max 4648 min
Histogram: 4 0 0 0 0 0 0 0 0 4
Neighs:    0 ave 0 max 0 min
Histogram: 8 0 0 0 0 0 0 0 0 0
FullNghs:  129688 ave 131400 max 127975 min
Histogram: 4 0 0 0 0 0 0 0 0 4

Total # of neighbors = 1037500
Ave neighs/atom = 691.667
Neighbor list builds = 0
Dangerous builds = 0

unfix    	1
fix		1 all box/relax aniso 0.0 vmax 0.0002

# should minimize to higher tolerance in practice

#minimize	1.0e-12  1.0e-18  1000  10000
minimize	1.0e-4  1.0e-6  1000  10000
WARNING: Using 'neigh_modify every 1 delay 0 check yes' setting during minimization (../min.cpp:168)
Per MPI rank memory allocation (min/avg/max) = 8.86 | 8.861 | 8.863 Mbytes
Step Temp TotEng PotEng E_vdwl E_coul Press Volume Lx Ly Lz Xz c_q1 c_q2 
       6   0.92875014   -10.041353   -10.041473     2.721496   -12.762969      -130831    17627.802       25.642       25.957      26.4845     -4.46691    3.3579959    -1.678998 
       7   0.92875014   -10.041833   -10.041953    2.7196698   -12.761623   -130754.01    17619.854    25.636872    25.952628    26.482314   -4.4665414    3.3577845   -1.6788923 
Loop time of 0.0807127 on 8 procs for 1 steps with 1500 atoms

100.0% CPU use with 8 MPI tasks x no OpenMP threads

Minimization stats:
  Stopping criterion = energy tolerance
  Energy initial, next-to-last, final = 
        -10.0414727016     -10.0414727016     -10.0419532985
  Force two-norm initial, final = 2625.99 2625.45
  Force max component initial, final = 1915.33 1916.61
  Final line search alpha, max atom move = 1.04421e-07 0.000200134
  Iterations, force evaluations = 1 1

MPI task timing breakdown:
Section |  min time  |  avg time  |  max time  |%varavg| %total
---------------------------------------------------------------
Pair    | 0.032652   | 0.035085   | 0.038195   |   1.0 | 43.47
Neigh   | 0          | 0          | 0          |   0.0 |  0.00
Comm    | 0.00066079 | 0.0037619  | 0.0061838  |   3.0 |  4.66
Output  | 0          | 0          | 0          |   0.0 |  0.00
Modify  | 0.041599   | 0.04161    | 0.04162    |   0.0 | 51.55
Other   |            | 0.0002559  |            |       |  0.32

Nlocal:    187.5 ave 190 max 185 min
Histogram: 4 0 0 0 0 0 0 0 0 4
Nghost:    4650 ave 4652 max 4648 min
Histogram: 4 0 0 0 0 0 0 0 0 4
Neighs:    0 ave 0 max 0 min
Histogram: 8 0 0 0 0 0 0 0 0 0
FullNghs:  129688 ave 131400 max 127975 min
Histogram: 4 0 0 0 0 0 0 0 0 4

Total # of neighbors = 1037500
Ave neighs/atom = 691.667
Neighbor list builds = 0
Dangerous builds = 0
min_modify	dmax 0.005 line quadratic

#dump		1 all cfg 10 *.cfg id type xs ys zs q vx vy vz fx fy fz
#dump_modify	1 element Hf O

#dump		2 all image 10 image.*.jpg element element #		axes yes 0.8 0.02 view 60 -30
#dump_modify	2 pad 2 element Hf O

#dump		3 all movie 10 movie.mpg element element #		axes yes 0.8 0.02 view 60 -30
#dump_modify	3 pad 2 element Hf O

velocity	all create 300.1 2398378
run  		10
Per MPI rank memory allocation (min/avg/max) = 7.735 | 7.736 | 7.738 Mbytes
Step Temp TotEng PotEng E_vdwl E_coul Press Volume Lx Ly Lz Xz c_q1 c_q2 
       7        300.1   -10.003188   -10.041953    2.7196698   -12.761623      -127240    17619.854    25.636872    25.952628    26.482314   -4.4665414    3.3577845   -1.6788923 
       8        300.1   -10.003188   -10.041953    2.7196698   -12.761623      -127240    17619.854    25.636872    25.952628    26.482314   -4.4665414    3.3577845   -1.6788923 
       9        300.1   -10.003188   -10.041953    2.7196698   -12.761623      -127240    17619.854    25.636872    25.952628    26.482314   -4.4665414    3.3577845   -1.6788923 
      10        300.1   -10.003188   -10.041953    2.7196698   -12.761623      -127240    17619.854    25.636872    25.952628    26.482314   -4.4665414    3.3577845   -1.6788923 
      11        300.1   -10.003188   -10.041953    2.7196698   -12.761623      -127240    17619.854    25.636872    25.952628    26.482314   -4.4665414    3.3577845   -1.6788923 
      12        300.1   -10.003188   -10.041953    2.7196698   -12.761623      -127240    17619.854    25.636872    25.952628    26.482314   -4.4665414    3.3577845   -1.6788923 
      13        300.1   -10.003188   -10.041953    2.7196698   -12.761623      -127240    17619.854    25.636872    25.952628    26.482314   -4.4665414    3.3577845   -1.6788923 
      14        300.1   -10.003188   -10.041953    2.7196698   -12.761623      -127240    17619.854    25.636872    25.952628    26.482314   -4.4665414    3.3577845   -1.6788923 
      15        300.1   -10.003188   -10.041953    2.7196698   -12.761623      -127240    17619.854    25.636872    25.952628    26.482314   -4.4665414    3.3577845   -1.6788923 
      16        300.1   -10.003188   -10.041953    2.7196698   -12.761623      -127240    17619.854    25.636872    25.952628    26.482314   -4.4665414    3.3577845   -1.6788923 
      17        300.1   -10.003188   -10.041953    2.7196698   -12.761623      -127240    17619.854    25.636872    25.952628    26.482314   -4.4665414    3.3577845   -1.6788923 
Loop time of 0.248669 on 8 procs for 10 steps with 1500 atoms

Performance: 0.695 ns/day, 34.537 hours/ns, 40.214 timesteps/s
99.4% CPU use with 8 MPI tasks x no OpenMP threads

MPI task timing breakdown:
Section |  min time  |  avg time  |  max time  |%varavg| %total
---------------------------------------------------------------
Pair    | 0.15941    | 0.16402    | 0.17091    |   0.9 | 65.96
Neigh   | 0          | 0          | 0          |   0.0 |  0.00
Comm    | 0.0022118  | 0.0091669  | 0.013799   |   4.0 |  3.69
Output  | 0.00052021 | 0.00052552 | 0.00053922 |   0.0 |  0.21
Modify  | 0.074852   | 0.074877   | 0.074937   |   0.0 | 30.11
Other   |            | 8.162e-05  |            |       |  0.03

Nlocal:    187.5 ave 190 max 185 min
Histogram: 4 0 0 0 0 0 0 0 0 4
Nghost:    4650 ave 4652 max 4648 min
Histogram: 4 0 0 0 0 0 0 0 0 4
Neighs:    0 ave 0 max 0 min
Histogram: 8 0 0 0 0 0 0 0 0 0
FullNghs:  129688 ave 131400 max 127975 min
Histogram: 4 0 0 0 0 0 0 0 0 4

Total # of neighbors = 1037500
Ave neighs/atom = 691.667
Neighbor list builds = 0
Dangerous builds = 0
Total wall time: 0:00:01
