LAMMPS (4 Jan 2019)
# Pure Si crystal, structure created by LAMMPS, qeq off

units		metal
atom_style	charge
dimension       3
boundary        p p p

lattice  	diamond 5.43
Lattice spacing in x,y,z = 5.43 5.43 5.43
region		box block 0 4 0 4 0 4
create_box	1 box
Created orthogonal box = (0 0 0) to (21.72 21.72 21.72)
  2 by 2 by 2 MPI processor grid
create_atoms	1 box
Created 512 atoms
  Time spent = 0.00093045 secs
mass		1 29.0

pair_style	comb
pair_coeff	* * ffield.comb Si
Reading potential file ffield.comb with DATE: 2011-02-22

neighbor	0.5 bin
neigh_modify	every 1 delay 1 check yes

fix		1 all nve
timestep        0.00020

thermo_style	custom step temp etotal pe evdwl ecoul press vol lx ly lz xz
thermo_modify	norm yes
velocity	all create 10.1 2398378
thermo	  	1

#dump		1 all cfg 10 *.cfg id type xs ys zs q vx vy vz fx fy fz
#dump_modify	1 append yes element Si

#dump		2 all image 10 image.*.jpg element element #		axes yes 0.8 0.02 view 60 -30
#dump_modify	2 pad 2 element Si

#dump		3 all movie 10 movie.mpg element element #		axes yes 0.8 0.02 view 60 -30
#dump_modify	3 pad 2 element Si

run  		10
Neighbor list info ...
  update every 1 steps, delay 1 steps, check yes
  max neighbors/atom: 2000, page size: 100000
  master list distance cutoff = 12.5
  ghost atom cutoff = 12.5
  binsize = 6.25, bins = 4 4 4
  1 neighbor lists, perpetual/occasional/extra = 1 0 0
  (1) pair comb, perpetual
      attributes: full, newton on
      pair build: full/bin/atomonly
      stencil: full/bin/3d
      bin: standard
Per MPI rank memory allocation (min/avg/max) = 6.832 | 6.832 | 6.832 Mbytes
Step Temp TotEng PotEng E_vdwl E_coul Press Volume Lx Ly Lz Xz 
       0         10.1   -4.6284152   -4.6297182   -4.6297182            0    1140.7851    10246.592        21.72        21.72        21.72            0 
       1    10.097867   -4.6284152   -4.6297179   -4.6297179            0    1140.8127    10246.592        21.72        21.72        21.72            0 
       2    10.091469   -4.6284152   -4.6297171   -4.6297171            0    1140.8955    10246.592        21.72        21.72        21.72            0 
       3    10.080814   -4.6284152   -4.6297157   -4.6297157            0    1141.0333    10246.592        21.72        21.72        21.72            0 
       4    10.065916   -4.6284152   -4.6297138   -4.6297138            0     1141.226    10246.592        21.72        21.72        21.72            0 
       5    10.046791   -4.6284152   -4.6297113   -4.6297113            0    1141.4733    10246.592        21.72        21.72        21.72            0 
       6    10.023464   -4.6284152   -4.6297083   -4.6297083            0    1141.7748    10246.592        21.72        21.72        21.72            0 
       7    9.9959608   -4.6284152   -4.6297048   -4.6297048            0    1142.1302    10246.592        21.72        21.72        21.72            0 
       8    9.9643155   -4.6284152   -4.6297007   -4.6297007            0    1142.5388    10246.592        21.72        21.72        21.72            0 
       9    9.9285657   -4.6284152   -4.6296961   -4.6296961            0    1143.0002    10246.592        21.72        21.72        21.72            0 
      10    9.8887539   -4.6284152   -4.6296909   -4.6296909            0    1143.5137    10246.592        21.72        21.72        21.72            0 
Loop time of 0.0243998 on 8 procs for 10 steps with 512 atoms

Performance: 7.082 ns/day, 3.389 hours/ns, 409.840 timesteps/s
99.7% CPU use with 8 MPI tasks x no OpenMP threads

MPI task timing breakdown:
Section |  min time  |  avg time  |  max time  |%varavg| %total
---------------------------------------------------------------
Pair    | 0.021353   | 0.02182    | 0.022147   |   0.2 | 89.43
Neigh   | 0          | 0          | 0          |   0.0 |  0.00
Comm    | 0.0018033  | 0.0021422  | 0.0026008  |   0.5 |  8.78
Output  | 0.00032585 | 0.00034472 | 0.00038697 |   0.0 |  1.41
Modify  | 1.248e-05  | 1.2808e-05 | 1.3205e-05 |   0.0 |  0.05
Other   |            | 8.035e-05  |            |       |  0.33

Nlocal:    64 ave 64 max 64 min
Histogram: 8 0 0 0 0 0 0 0 0 0
Nghost:    2407 ave 2407 max 2407 min
Histogram: 8 0 0 0 0 0 0 0 0 0
Neighs:    0 ave 0 max 0 min
Histogram: 8 0 0 0 0 0 0 0 0 0
FullNghs:  26624 ave 26624 max 26624 min
Histogram: 8 0 0 0 0 0 0 0 0 0

Total # of neighbors = 212992
Ave neighs/atom = 416
Neighbor list builds = 0
Dangerous builds = 0
Total wall time: 0:00:00
