LAMMPS (4 Jan 2019)
# Input File for DPD fluid under isothermal conditions using the VV-SSA integration scheme
##log             #log.dpd-shardlow
boundary        p p p

units           metal
atom_style      atomic   # Can be either dpd or atomic
read_data       data.dpd
  orthogonal box = (-5.36874 -4.6558 -6.56118) to (61.4618 53.2342 46.2472)
  2 by 2 by 2 MPI processor grid
  reading atoms ...
  1000 atoms
  reading velocities ...
  1000 velocities

comm_modify     mode single vel yes
mass            1 100.0

pair_style      dpd/fdt 300.0 10.0 234324
pair_coeff      1 1 0.075 0.022 10.0

neighbor        2.0 bin
neigh_modify    every 1 delay 0 check no once no

timestep        0.001

thermo          1
thermo_style    custom step temp pe ke etotal
thermo_modify   format float %15.10f

fix             1 all shardlow
fix             2 all nve

run             100
Neighbor list info ...
  update every 1 steps, delay 0 steps, check no
  max neighbors/atom: 2000, page size: 100000
  master list distance cutoff = 12
  ghost atom cutoff = 12
  binsize = 6, bins = 12 10 9
  2 neighbor lists, perpetual/occasional/extra = 2 0 0
  (1) pair dpd/fdt, perpetual
      attributes: half, newton on
      pair build: half/bin/atomonly/newton
      stencil: half/bin/3d/newton
      bin: standard
  (2) fix shardlow, perpetual
      attributes: half, newton on, ghost, ssa
      pair build: half/bin/newton/ssa
      stencil: half/bin/3d/newton/ssa
      bin: ssa
Per MPI rank memory allocation (min/avg/max) = 2.637 | 2.637 | 2.637 Mbytes
Step Temp PotEng KinEng TotEng 
       0  128.6667660382  263.2538386154   16.6148533499  279.8686919654 
       1  128.9781238607  263.2538952946   16.6550592611  279.9089545556 
       2  129.0808277057  263.2539871062   16.6683214995  279.9223086057 
       3  128.8786540592  263.2541226846   16.6422146376  279.8963373222 
       4  128.7903246050  263.2543012395   16.6308085770  279.8851098165 
       5  128.8508637413  263.2545221695   16.6386260493  279.8931482187 
       6  128.8401259365  263.2547741560   16.6372394670  279.8920136230 
       7  128.8420110623  263.2550610248   16.6374828950  279.8925439197 
       8  128.9416764677  263.2553733213   16.6503527770  279.9057260983 
       9  128.7635064222  263.2557191012   16.6273455213  279.8830646226 
      10  129.3306294404  263.2560949057   16.7005786185  279.9566735242 
      11  129.4922460088  263.2565049834   16.7214483090  279.9779532924 
      12  129.6959044582  263.2569765652   16.7477469048  280.0047234700 
      13  129.6401516216  263.2574878059   16.7405474916  279.9980352975 
      14  129.6546855149  263.2580350413   16.7424242661  280.0004593074 
      15  129.8970655524  263.2586159138   16.7737230149  280.0323389286 
      16  129.9351145950  263.2592273828   16.7786363214  280.0378637041 
      17  130.1038975611  263.2598793764   16.8004314151  280.0603107916 
      18  130.2267778143  263.2605876655   16.8162990510  280.0768867164 
      19  130.5342076177  263.2613451155   16.8559977335  280.1173428490 
      20  130.6373972380  263.2621425909   16.8693227005  280.1314652914 
      21  130.8760852273  263.2629894981   16.9001446918  280.1631341898 
      22  130.5578661095  263.2638744287   16.8590527755  280.1229272043 
      23  130.7036227645  263.2648002193   16.8778744613  280.1426746806 
      24  130.8866037202  263.2657686704   16.9015029541  280.1672716245 
      25  131.1031010613  263.2667835798   16.9294594473  280.1962430271 
      26  131.4898629040  263.2678138355   16.9794023463  280.2472161817 
      27  131.4510589979  263.2688872082   16.9743915635  280.2432787717 
      28  132.1238534154  263.2700003843   17.0612701020  280.3312704863 
      29  132.2345396939  263.2711604138   17.0755631191  280.3467235328 
      30  132.2047791244  263.2723595742   17.0717201104  280.3440796845 
      31  132.1849949437  263.2735855363   17.0691653616  280.3427508979 
      32  132.0496403212  263.2748361291   17.0516868995  280.3265230286 
      33  132.0413044770  263.2761207841   17.0506104845  280.3267312686 
      34  131.8913239253  263.2774482068   17.0312433632  280.3086915700 
      35  131.8436256650  263.2788080442   17.0250840446  280.3038920888 
      36  132.0866034722  263.2802086559   17.0564599839  280.3366686398 
      37  132.0929224924  263.2816515254   17.0572759645  280.3389274899 
      38  132.3028842259  263.2831393997   17.0843885090  280.3675279087 
      39  132.5757422199  263.2846581035   17.1196229032  280.4042810067 
      40  132.6372198875  263.2862151122   17.1275615688  280.4137766810 
      41  132.4208323537  263.2878062929   17.0996192551  280.3874255480 
      42  132.2809106133  263.2894287933   17.0815510369  280.3709798302 
      43  132.3907973676  263.2910976794   17.0957408107  280.3868384901 
      44  132.7542631467  263.2928192667   17.1426754684  280.4354947351 
      45  132.9527958556  263.2945700581   17.1683121728  280.4628822309 
      46  132.8989446469  263.2963543688   17.1613583186  280.4577126874 
      47  132.7069808014  263.2981882238   17.1365698573  280.4347580811 
      48  132.9909753211  263.3000646852   17.1732423209  280.4733070061 
      49  133.0816167220  263.3019719953   17.1849469253  280.4869189205 
      50  133.1952984361  263.3039227895   17.1996267456  280.5035495351 
      51  133.4366430466  263.3059080359   17.2307917887  280.5366998246 
      52  133.5129117701  263.3079379203   17.2406404364  280.5485783567 
      53  133.2828036864  263.3100059755   17.2109263760  280.5209323515 
      54  132.9219186188  263.3121185080   17.1643249679  280.4764434759 
      55  132.6897141312  263.3142681088   17.1343401969  280.4486083057 
      56  133.0137217912  263.3164516340   17.1761795928  280.4926312268 
      57  133.0723312783  263.3186536951   17.1837478877  280.5024015827 
      58  133.0567115144  263.3209008669   17.1817308938  280.5026317607 
      59  133.0690603800  263.3231901339   17.1833255137  280.5065156476 
      60  132.9441531946  263.3255122892   17.1671961383  280.4927084275 
      61  132.9637859737  263.3278735383   17.1697313365  280.4976048748 
      62  133.0342888911  263.3302652634   17.1788354406  280.5091007040 
      63  133.3033491624  263.3327078822   17.2135794315  280.5462873137 
      64  133.5324037450  263.3351959839   17.2431574524  280.5783534363 
      65  133.5361674043  263.3377130329   17.2436434571  280.5813564900 
      66  133.9352074189  263.3402831807   17.2951718472  280.6354550279 
      67  134.1507189045  263.3429022302   17.3230010361  280.6659032662 
      68  133.8461066849  263.3455572516   17.2836661906  280.6292234422 
      69  134.1716122412  263.3482544260   17.3256990111  280.6739534372 
      70  134.2700704912  263.3509895864   17.3384130121  280.6894025985 
      71  134.5266415926  263.3537491085   17.3715442654  280.7252933740 
      72  134.4121035226  263.3565462578   17.3567538631  280.7133001209 
      73  134.2645769231  263.3593829281   17.3377036228  280.6970865509 
      74  134.2183397029  263.3622533371   17.3317329696  280.6939863067 
      75  134.3456385749  263.3651708283   17.3481711856  280.7133420139 
      76  134.4222965548  263.3681085096   17.3580700984  280.7261786080 
      77  134.6053083559  263.3710910132   17.3817025742  280.7527935874 
      78  134.7162304787  263.3741023514   17.3960260460  280.7701283974 
      79  134.8604083277  263.3771383933   17.4146438593  280.7917822526 
      80  134.9769048443  263.3802166692   17.4296871575  280.8099038267 
      81  135.1159665178  263.3833307245   17.4476443145  280.8309750390 
      82  135.2327654500  263.3864671155   17.4627266639  280.8491937794 
      83  135.3934261372  263.3896496146   17.4834729207  280.8731225353 
      84  135.7717706290  263.3928816797   17.5323288797  280.9252105594 
      85  135.9839374750  263.3961538422   17.5597261722  280.9558800144 
      86  136.6408732656  263.3994915018   17.6445568721  281.0440483740 
      87  136.8576853205  263.4028717945   17.6725540046  281.0754257991 
      88  136.9395009637  263.4062767029   17.6831189310  281.0893956339 
      89  137.2211261643  263.4097078881   17.7194854424  281.1291933305 
      90  137.3879261466  263.4131824086   17.7410244717  281.1542068804 
      91  137.2176517461  263.4166931832   17.7190367877  281.1357299709 
      92  137.3666506510  263.4202245258   17.7382771481  281.1585016740 
      93  137.0427741719  263.4237893803   17.6964546918  281.1202440721 
      94  137.2464512023  263.4273902777   17.7227556870  281.1501459646 
      95  137.3350147582  263.4310222070   17.7341919773  281.1652141843 
      96  137.0313580431  263.4346910239   17.6949805170  281.1296715409 
      97  137.4625262023  263.4384007050   17.7506576429  281.1890583479 
      98  137.6145538571  263.4421568960   17.7702891085  281.2124460045 
      99  137.5628400719  263.4459484929   17.7636112616  281.2095597545 
     100  137.8027141718  263.4497734274   17.7945864164  281.2443598439 
Loop time of 0.125693 on 8 procs for 100 steps with 1000 atoms

Performance: 68.739 ns/day, 0.349 hours/ns, 795.591 timesteps/s
98.8% CPU use with 8 MPI tasks x no OpenMP threads

MPI task timing breakdown:
Section |  min time  |  avg time  |  max time  |%varavg| %total
---------------------------------------------------------------
Pair    | 0.0044935  | 0.0045948  | 0.0046694  |   0.1 |  3.66
Neigh   | 0.057942   | 0.059021   | 0.060227   |   0.3 | 46.96
Comm    | 0.01294    | 0.014103   | 0.015173   |   0.6 | 11.22
Output  | 0.0018514  | 0.0019436  | 0.0023285  |   0.3 |  1.55
Modify  | 0.045459   | 0.045861   | 0.045926   |   0.1 | 36.49
Other   |            | 0.0001695  |            |       |  0.13

Nlocal:    125 ave 125 max 125 min
Histogram: 8 0 0 0 0 0 0 0 0 0
Nghost:    597.75 ave 600 max 595 min
Histogram: 2 0 1 0 1 0 0 0 1 3
Neighs:    2346.62 ave 2406 max 2319 min
Histogram: 2 3 0 1 0 0 1 0 0 1

Total # of neighbors = 18773
Ave neighs/atom = 18.773
Neighbor list builds = 100
Dangerous builds not checked

Please see the log.cite file for references relevant to this simulation

Total wall time: 0:00:00
