LAMMPS (4 Jan 2019)
# Input File for DPD fluid under isobaric conditions using the VV-SSA integration scheme
##log             #log.dpdp-shardlow
boundary        p p p

units           metal
atom_style      atomic   # Can be either dpd or atomic
read_data       data.dpd
  orthogonal box = (-5.36874 -4.6558 -6.56118) to (61.4618 53.2342 46.2472)
  2 by 2 by 2 MPI processor grid
  reading atoms ...
  1000 atoms
  reading velocities ...
  1000 velocities

comm_modify     mode single vel yes
mass            1 100.0

pair_style      dpd/fdt 300.0 10.0 234324
pair_coeff      1 1 0.075 0.022 10.0

neighbor        2.0 bin
neigh_modify    every 1 delay 0 check no once no

timestep        0.001

thermo          1
thermo_style    custom step temp press vol pe ke etotal enthalpy cella cellb cellc
thermo_modify   format float %15.10f

fix             1 all shardlow
fix             0 all nph iso 0.0 0.0 1000.0

run             100
Neighbor list info ...
  update every 1 steps, delay 0 steps, check no
  max neighbors/atom: 2000, page size: 100000
  master list distance cutoff = 12
  ghost atom cutoff = 12
  binsize = 6, bins = 12 10 9
  2 neighbor lists, perpetual/occasional/extra = 2 0 0
  (1) pair dpd/fdt, perpetual
      attributes: half, newton on
      pair build: half/bin/atomonly/newton
      stencil: half/bin/3d/newton
      bin: standard
  (2) fix shardlow, perpetual
      attributes: half, newton on, ghost, ssa
      pair build: half/bin/newton/ssa
      stencil: half/bin/3d/newton/ssa
      bin: ssa
Per MPI rank memory allocation (min/avg/max) = 2.637 | 2.637 | 2.637 Mbytes
Step Temp Press Volume PotEng KinEng TotEng Enthalpy Cella Cellb Cellc 
       0  128.6667660382 3065.7908751302 204306.2673181506  263.2538386154   16.6148533499  279.8686919654  670.8120681014   66.8305353589   57.8900140312   52.8084103339 
       1  128.9781238562 3066.0011339109 204306.2673289464  263.2538952745   16.6550592605  279.9089545350  670.8791424610   66.8305353600   57.8900140323   52.8084103348 
       2  129.0808276875 3066.0690369882 204306.2673613342  263.2539870259   16.6683214971  279.9223085230  670.9011553724   66.8305353636   57.8900140353   52.8084103376 
       3  128.8786540183 3065.9305361165 204306.2674153135  263.2541225039   16.6422146323  279.8963371362  670.8575227413   66.8305353694   57.8900140404   52.8084103422 
       4  128.7903245324 3065.8677278497 204306.2674908836  263.2543009183   16.6308085676  279.8851094860  670.8382860540   66.8305353777   57.8900140476   52.8084103488 
       5  128.8508636277 3065.9040481159 204306.2675880445  263.2545216676   16.6386260346  279.8931477022  670.8509559422   66.8305353883   57.8900140567   52.8084103571 
       6  128.8401257727 3065.8911916142 204306.2677067964  263.2547734334   16.6372394459  279.8920128793  670.8481819117   66.8305354012   57.8900140679   52.8084103674 
       7  128.8420108396 3065.8856381586 204306.2678471392  263.2550600412   16.6374828662  279.8925429074  670.8480040432   66.8305354165   57.8900140812   52.8084103795 
       8  128.9416761768 3065.9452456115 204306.2680090731  263.2553720367   16.6503527394  279.9057247761  670.8687872421   66.8305354342   57.8900140965   52.8084103934 
       9  128.7635060552 3065.8165562550 204306.2681925976  263.2557174754   16.6273454739  279.8830629493  670.8297155632   66.8305354542   57.8900141138   52.8084104092 
      10  129.3306289848 3066.1900174259 204306.2683977138  263.2560928985   16.7005785597  279.9566714581  670.9509474687   66.8305354766   57.8900141332   52.8084104269 
      11  129.4922454565 3066.2886053569 204306.2686244232  263.2565025547   16.7214482377  279.9779507923  670.9847989680   66.8305355013   57.8900141546   52.8084104464 
      12  129.6959037999 3066.4142835777 204306.2688727271  263.2569736749   16.7477468197  280.0047204946  671.0275953750   66.8305355284   57.8900141781   52.8084104678 
      13  129.6401508496 3066.3637501477 204306.2691426253  263.2574844137   16.7405473919  279.9980318056  671.0144632830   66.8305355578   57.8900142036   52.8084104911 
      14  129.6546846195 3066.3597561256 204306.2694341177  263.2580311072   16.7424241505  280.0004552577  671.0163779834   66.8305355896   57.8900142311   52.8084105162 
      15  129.8970645210 3066.5083329273 204306.2697472046  263.2586113976   16.7737228817  280.0323342792  671.0672038139   66.8305356237   57.8900142607   52.8084105432 
      16  129.9351134241 3066.5178454328 204306.2700818870  263.2592222443   16.7786361702  280.0378584145  671.0739416051   66.8305356602   57.8900142923   52.8084105720 
      17  130.1038962367 3066.6142221857 204306.2704381649  263.2598735756   16.8004312441  280.0603048197  671.1086784586   66.8305356990   57.8900143259   52.8084106027 
      18  130.2267763282 3066.6781971285 204306.2708160393  263.2605811622   16.8162988591  280.0768800212  671.1334123372   66.8305357402   57.8900143616   52.8084106353 
      19  130.5342059571 3066.8654930740 204306.2712155105  263.2613378695   16.8559975191  280.1173353886  671.1977520652   66.8305357838   57.8900143993   52.8084106697 
      20  130.6373953943 3066.9135555039 204306.2716365800  263.2621345622   16.8693224624  280.1314570246  671.2180033300   66.8305358297   57.8900144391   52.8084107059 
      21  130.8760831898 3067.0517360331 204306.2720792479  263.2629806464   16.9001444286  280.1631250750  671.2672927264   66.8305358780   57.8900144809   52.8084107441 
      22  130.5578638802 3066.8130700034 204306.2725435142  263.2638647139   16.8590524876  280.1229172016  671.1966515374   66.8305359286   57.8900145248   52.8084107841 
      23  130.7036203218 3066.8865196987 204306.2730293783  263.2647896013   16.8778741459  280.1426637472  671.2257651681   66.8305359816   57.8900145707   52.8084108260 
      24  130.8866010592 3066.9837565720 204306.2735368407  263.2657571090   16.9015026104  280.1672597195  671.2627615591   66.8305360369   57.8900146186   52.8084108697 
      25  131.1030981667 3067.1025635508 204306.2740659020  263.2667710349   16.9294590735  280.1962301084  671.3068829841   66.8305360946   57.8900146686   52.8084109153 
      26  131.4898597610 3067.3354409847 204306.2746165638  263.2678002670   16.9794019404  280.2472022074  671.3875521919   66.8305361546   57.8900147206   52.8084109627 
      27  131.4510556167 3067.2795132673 204306.2751888265  263.2688725759   16.9743911269  280.2432637028  671.3764829946   66.8305362170   57.8900147746   52.8084110120 
      28  132.1238497496 3067.7026906887 204306.2757826915  263.2699846481   17.0612696286  280.3312542767  671.5184374261   66.8305362818   57.8900148307   52.8084110632 
      29  132.2345357629 3067.7449262708 204306.2763981603  263.2711435335   17.0755626115  280.3467061450  671.5392762680   66.8305363489   57.8900148888   52.8084111162 
      30  132.2047749148 3067.6911086107 204306.2770352330  263.2723415097   17.0717195668  280.3440610765  671.5297697013   66.8305364184   57.8900149490   52.8084111711 
      31  132.1849904509 3067.6427779447 204306.2776939093  263.2735662475   17.0691647815  280.3427310290  671.5222778870   66.8305364902   57.8900150112   52.8084112278 
      32  132.0496355378 3067.5149892727 204306.2783741884  263.2748155760   17.0516862818  280.3265018578  671.4897546675   66.8305365644   57.8900150755   52.8084112865 
      33  132.0412993869 3067.4718778478 204306.2790760698  263.2760989264   17.0506098272  280.3267087536  671.4844654262   66.8305366409   57.8900151418   52.8084113469 
      34  131.8913185341 3067.3318004755 204306.2797995528  263.2774250045   17.0312426670  280.3086676715  671.4485633484   66.8305367198   57.8900152101   52.8084114093 
      35  131.8436199620 3067.2595537588 204306.2805446368  263.2787834570   17.0250833082  280.3038667652  671.4345511145   66.8305368010   57.8900152805   52.8084114735 
      36  132.0865974156 3067.3822030436 204306.2813113219  263.2801826439   17.0564592018  280.3366418456  671.4829676496   66.8305368846   57.8900153529   52.8084115395 
      37  132.0929160881 3067.3438289079 204306.2820996084  263.2816240484   17.0572751375  280.3388991859  671.4803331074   66.8305369706   57.8900154273   52.8084116074 
      38  132.3028774563 3067.4417248879 204306.2829094964  263.2831104175   17.0843876348  280.3674980523  671.5214170203   66.8305370589   57.8900155038   52.8084116772 
      39  132.5757350630 3067.5810394689 204306.2837409868  263.2846275761   17.1196219790  280.4042495551  671.5759352266   66.8305371495   57.8900155824   52.8084117489 
      40  132.6372123437 3067.5766432476 204306.2845940802  263.2861829995   17.1275605946  280.4137435941  671.5848703018   66.8305372426   57.8900156629   52.8084118224 
      41  132.4208244611 3067.3839482980 204306.2854687761  263.2877725548   17.0996182359  280.3873907907  671.5339471054   66.8305373379   57.8900157456   52.8084118977 
      42  132.2809023570 3067.2415494965 204306.2863650729  263.2893933896   17.0815499708  280.3709433604  671.4993429857   66.8305374357   57.8900158302   52.8084119749 
      43  132.3907887128 3067.2665799134 204306.2872829703  263.2910605701   17.0957396931  280.3868002633  671.5183934736   66.8305375357   57.8900159169   52.8084120540 
      44  132.7542540400 3067.4619037781 204306.2882224692  263.2927804117   17.1426742924  280.4354547041  671.5919570150   66.8305376382   57.8900160056   52.8084121350 
      45  132.9527863119 3067.5451882305 204306.2891835706  263.2945294173   17.1683109404  280.4628403577  671.6299647727   66.8305377430   57.8900160964   52.8084122178 
      46  132.8989346778 3067.4570387297 204306.2901662744  263.2963119021   17.1613570312  280.4576689334  671.6135545847   66.8305378501   57.8900161892   52.8084123024 
      47  132.7069704248 3067.2742549895 204306.2911705795  263.2981438911   17.1365685174  280.4347124085  671.5672917716   66.8305379596   57.8900162841   52.8084123890 
      48  132.9909644607 3067.4115725423 204306.2921964859  263.3000184465   17.1732409185  280.4732593650  671.6233511475   66.8305380715   57.8900163810   52.8084124774 
      49  133.0816054155 3067.4172445843 204306.2932439943  263.3019238105   17.1849454652  280.4868692757  671.6376863509   66.8305381857   57.8900164799   52.8084125676 
      50  133.1952866306 3067.4373008923 204306.2943131044  263.3038726186   17.1996252211  280.5034978397  671.6568745015   66.8305383023   57.8900165809   52.8084126597 
      51  133.4366307507 3067.5422923169 204306.2954038170  263.3058558387   17.2307902009  280.5366460396  671.7034130829   66.8305384212   57.8900166839   52.8084127537 
      52  133.5128989948 3067.5344943832 204306.2965161323  263.3078836568   17.2406387868  280.5485224436  671.7142972399   66.8305385425   57.8900167890   52.8084128495 
      53  133.2827904316 3067.3186501555 204306.2976500496  263.3099496057   17.2109246644  280.5208742700  671.6591272192   66.8305386661   57.8900168961   52.8084129472 
      54  132.9219048905 3067.0138381157 204306.2988055670  263.3120599918   17.1643231951  280.4763831869  671.5757693350   66.8305387921   57.8900170052   52.8084130468 
      55  132.6896999445 3066.7950524526 204306.2999826828  263.3142074062   17.1343383650  280.4485457711  671.5200350682   66.8305389205   57.8900171164   52.8084131482 
      56  133.0137070217 3066.9505656724 204306.3011813966  263.3163887049   17.1761776855  280.4925663905  671.5838887128   66.8305390512   57.8900172296   52.8084132515 
      57  133.0723159624 3066.9259348678 204306.3024017088  263.3185884994   17.1837459099  280.5023344093  671.5905181973   66.8305391842   57.8900173449   52.8084133566 
      58  133.0566956816 3066.8500924032 204306.3036436193  263.3208333648   17.1817288493  280.5025622140  671.5810771017   66.8305393197   57.8900174622   52.8084134636 
      59  133.0690440184 3066.7919097585 204306.3049071273  263.3231202851   17.1833234009  280.5064436860  671.5775416592   66.8305394574   57.8900175815   52.8084135725 
      60  132.9441362838 3066.6406882550 204306.3061922324  263.3254400538   17.1671939546  280.4926340085  671.5444509813   66.8305395975   57.8900177029   52.8084136832 
      61  132.9637684821 3066.5862764902 204306.3074989336  263.3277988764   17.1697290778  280.4975279541  671.5424089498   66.8305397400   57.8900178263   52.8084137958 
      62  133.0342708066 3066.5649774582 204306.3088272309  263.3301881349   17.1788331053  280.5090212402  671.5511887688   66.8305398849   57.8900179518   52.8084139103 
      63  133.3033304124 3066.6763814448 204306.3101771244  263.3326282471   17.2135770103  280.5462052573  671.6025813809   66.8305400320   57.8900180793   52.8084140266 
      64  133.5323842990 3066.7595232737 204306.3115486149  263.3351138022   17.2431549413  280.5782687435  671.6452495703   66.8305401816   57.8900182088   52.8084141447 
      65  133.5361473654 3066.6895858539 204306.3129417025  263.3376282646   17.2436408694  280.5812691340  671.6393343487   66.8305403335   57.8900183404   52.8084142648 
      66  133.9351866201 3066.8850469942 204306.3143563876  263.3401957858   17.2951691615  280.6353649473  671.7183576800   66.8305404877   57.8900184740   52.8084143866 
      67  134.1506974293 3066.9555849352 204306.3157926711  263.3428121687   17.3229982630  280.6658104316  671.7578007697   66.8305406443   57.8900186096   52.8084145104 
      68  133.8460846219 3066.6741948521 204306.3172505525  263.3454644836   17.2836633416  280.6291278252  671.6852386579   66.8305408033   57.8900187473   52.8084146360 
      69  134.1715894342 3066.8171288750 204306.3187300308  263.3481589115   17.3256960660  280.6738549775  671.7481953006   66.8305409646   57.8900188871   52.8084147635 
      70  134.2700469846 3066.8056441181 204306.3202311070  263.3508912854   17.3384099766  280.6893012620  671.7621799453   66.8305411283   57.8900190289   52.8084148928 
      71  134.5266173596 3066.8996211637 204306.3217537812  263.3536479810   17.3715411362  280.7251891172  671.8100544788   66.8305412943   57.8900191727   52.8084150240 
      72  134.4120786167 3066.7416741359 204306.3232980533  263.3564422639   17.3567506470  280.7131929109  671.7779201414   66.8305414627   57.8900193185   52.8084151570 
      73  134.2645513734 3066.5602909843 204306.3248639217  263.3592760278   17.3377003235  280.6969763514  671.7385769644   66.8305416334   57.8900194664   52.8084152920 
      74  134.2183134609 3066.4465084308 204306.3264513858  263.3621434905   17.3317295809  280.6938730715  671.7209674005   66.8305418065   57.8900196164   52.8084154287 
      75  134.3456115553 3066.4487223163 204306.3280604450  263.3650579955   17.3481676965  280.7132256921  671.7406054109   66.8305419820   57.8900197683   52.8084155674 
      76  134.4222687863 3066.4158801984 204306.3296910991  263.3679926507   17.3580665126  280.7260591633  671.7492540421   66.8305421598   57.8900199223   52.8084157079 
      77  134.6052797559 3066.4535667517 204306.3313433485  263.3709720882   17.3816988810  280.7526709692  671.7806747240   66.8305423399   57.8900200784   52.8084158502 
      78  134.7162010748 3066.4413451058 204306.3330171929  263.3739803204   17.3960222491  280.7700025695  671.7964510481   66.8305425224   57.8900202365   52.8084159944 
      79  134.8603781458 3066.4503835686 204306.3347126327  263.3770132164   17.4146399618  280.7916531783  671.8192574685   66.8305427073   57.8900203966   52.8084161405 
      80  134.9768738857 3066.4395131524 204306.3364296674  263.3800883065   17.4296831598  280.8097714663  671.8359928691   66.8305428945   57.8900205588   52.8084162884 
      81  135.1159347022 3066.4426006313 204306.3381682973  263.3831991362   17.4476402061  280.8308393423  671.8574577818   66.8305430841   57.8900207230   52.8084164382 
      82  135.2327327526 3066.4293011019 204306.3399285224  263.3863322616   17.4627224417  280.8490547033  671.8739805823   66.8305432760   57.8900208893   52.8084165899 
      83  135.3933925601 3066.4448436418 204306.3417103425  263.3895114553   17.4834685848  280.8729800401  671.8998912830   66.8305434703   57.8900210576   52.8084167434 
      84  135.7717360988 3066.6062673439 204306.3435137584  263.3927401750   17.5323244207  280.9250645957  671.9725637179   66.8305436670   57.8900212279   52.8084168988 
      85  135.9839020470 3066.6544633786 204306.3453387709  263.3960089522   17.5597215974  280.9557305496  672.0093790270   66.8305438659   57.8900214003   52.8084170560 
      86  136.6408366594 3067.0014517837 204306.3471853812  263.3993431868   17.6445521452  281.0438953320  672.1417946122   66.8305440673   57.8900215747   52.8084172152 
      87  136.8576477457 3067.0498990784 204306.3490535909  263.4027200145   17.6725491526  281.0752691671  672.1793499259   66.8305442710   57.8900217511   52.8084173761 
      88  136.9394624792 3067.0058795096 204306.3509434000  263.4061214181   17.6831139615  281.0892353796  672.1877064685   66.8305444771   57.8900219296   52.8084175389 
      89  137.2210866903 3067.0960537116 204306.3528548086  263.4095490587   17.7194803451  281.1290294038  672.2390029861   66.8305446855   57.8900221101   52.8084177036 
      90  137.3878856805 3067.1079963103 204306.3547878169  263.4130199947   17.7410192463  281.1540392410  672.2655394201   66.8305448962   57.8900222927   52.8084178702 
      91  137.2176104795 3066.8915910589 204306.3567424243  263.4165271449   17.7190314589  281.1355586038  672.2194669580   66.8305451094   57.8900224773   52.8084180386 
      92  137.3666084814 3066.8901445139 204306.3587186301  263.4200548233   17.7382717027  281.1583265261  672.2420542026   66.8305453248   57.8900226640   52.8084182088 
      93  137.0427312648 3066.5686763278 204306.3607164332  263.4236159737   17.6964491512  281.1200651249  672.1628036418   66.8305455427   57.8900228527   52.8084183810 
      94  137.2464072258 3066.6023318278 204306.3627358325  263.4272131272   17.7227500082  281.1499631355  672.1969972000   66.8305457629   57.8900230434   52.8084185550 
      95  137.3349697464 3066.5569857532 204306.3647768282  263.4308412728   17.7341861649  281.1650274377  672.2062829675   66.8305459854   57.8900232362   52.8084187308 
      96  137.0313122616 3066.2458337587 204306.3668394188  263.4345062663   17.6949746052  281.1294808715  672.1310628644   66.8305462103   57.8900234310   52.8084189085 
      97  137.4624791948 3066.4296565418 204306.3689236038  263.4382120842   17.7506515728  281.1888636569  672.2138903551   66.8305464376   57.8900236278   52.8084190881 
      98  137.6145058362 3066.4240730866 204306.3710293839  263.4419643721   17.7702829075  281.2122472796  672.2365660169   66.8305466672   57.8900238267   52.8084192695 
      99  137.5627909766 3066.2795723381 204306.3731567586  263.4457520262   17.7636049219  281.2093569481  672.2152533079   66.8305468991   57.8900240277   52.8084194528 
     100  137.8026639514 3066.3305523758 204306.3753057276  263.4495729782   17.7945799314  281.2441529096  672.2565542556   66.8305471334   57.8900242306   52.8084196380 
Loop time of 0.12802 on 8 procs for 100 steps with 1000 atoms

Performance: 67.489 ns/day, 0.356 hours/ns, 781.127 timesteps/s
98.0% CPU use with 8 MPI tasks x no OpenMP threads

MPI task timing breakdown:
Section |  min time  |  avg time  |  max time  |%varavg| %total
---------------------------------------------------------------
Pair    | 0.00473    | 0.0048762  | 0.0050094  |   0.1 |  3.81
Neigh   | 0.057406   | 0.058845   | 0.06053    |   0.4 | 45.97
Comm    | 0.012556   | 0.014249   | 0.015848   |   0.8 | 11.13
Output  | 0.0027701  | 0.0029023  | 0.0032021  |   0.2 |  2.27
Modify  | 0.046236   | 0.046555   | 0.04671    |   0.1 | 36.37
Other   |            | 0.0005928  |            |       |  0.46

Nlocal:    125 ave 125 max 125 min
Histogram: 8 0 0 0 0 0 0 0 0 0
Nghost:    597.75 ave 600 max 595 min
Histogram: 2 0 1 0 1 0 0 0 1 3
Neighs:    2346.62 ave 2406 max 2319 min
Histogram: 2 3 0 1 0 0 1 0 0 1

Total # of neighbors = 18773
Ave neighs/atom = 18.773
Neighbor list builds = 100
Dangerous builds not checked

Please see the log.cite file for references relevant to this simulation

Total wall time: 0:00:00
