LAMMPS (4 Jan 2019)
# 2-d LJ flow simulation

dimension	2
boundary	p s p

atom_style	atomic
neighbor	0.3 bin
neigh_modify	delay 5

# create geometry

lattice		hex 0.7
Lattice spacing in x,y,z = 1.28436 2.22457 1.28436
region		box block 0 20 0 10 -0.25 0.25
create_box	3 box
Created orthogonal box = (0 0 -0.321089) to (25.6871 22.2457 0.321089)
  4 by 2 by 1 MPI processor grid
create_atoms	1 box
Created 420 atoms
  Time spent = 0.000607535 secs

mass		1 1.0
mass		2 1.0
mass		3 1.0

# LJ potentials

pair_style	lj/cut 1.12246
pair_coeff	* * 1.0 1.0 1.12246

# define groups

region	     1 block INF INF INF 1.25 INF INF
group	     lower region 1
60 atoms in group lower
region	     2 block INF INF 8.75 INF INF INF
group	     upper region 2
60 atoms in group upper
group	     boundary union lower upper
120 atoms in group boundary
group	     flow subtract all boundary
300 atoms in group flow

set	     group lower type 2
  60 settings made for type
set	     group upper type 3
  60 settings made for type

# initial velocities

compute	     mobile flow temp
velocity     flow create 1.0 482748 temp mobile
fix	     1 all nve
fix	     2 flow temp/rescale 200 1.0 1.0 0.02 1.0
fix_modify   2 temp mobile

# Couette flow

#velocity     lower set 0.0 0.0 0.0
#velocity     upper set 3.0 0.0 0.0
#fix	     3 boundary setforce 0.0 0.0 0.0
#fix	     4 all enforce2d

# Poiseuille flow

velocity     boundary set 0.0 0.0 0.0
fix	     3 lower setforce 0.0 0.0 0.0
fix	     4 upper setforce 0.0 NULL 0.0
fix	     5 upper aveforce 0.0 -1.0 0.0
fix	     6 flow addforce 0.5 0.0 0.0
fix	     7 all enforce2d

# Run

timestep	0.003
thermo		500
thermo_modify	temp mobile
WARNING: Temperature for thermo pressure is not for group all (../thermo.cpp:488)

#dump		1 all atom 500 dump.flow

#dump		2 all image 100 image.*.jpg type type #		zoom 1.6 adiam 1.5
#dump_modify	2 pad 5

#dump		3 all movie 100 movie.mpg type type #		zoom 1.6 adiam 1.5
#dump_modify	3 pad 5

run		10000
Neighbor list info ...
  update every 1 steps, delay 5 steps, check yes
  max neighbors/atom: 2000, page size: 100000
  master list distance cutoff = 1.42246
  ghost atom cutoff = 1.42246
  binsize = 0.71123, bins = 37 32 1
  1 neighbor lists, perpetual/occasional/extra = 1 0 0
  (1) pair lj/cut, perpetual
      attributes: half, newton on
      pair build: half/bin/atomonly/newton
      stencil: half/bin/2d/newton
      bin: standard
Per MPI rank memory allocation (min/avg/max) = 3.047 | 3.047 | 3.047 Mbytes
Step Temp E_pair E_mol TotEng Press Volume 
       0            1            0            0   0.71190476   0.52314537    571.54286 
     500    1.1102195  -0.40253238            0   0.38783815    2.5158734    572.53989 
    1000            1  -0.37520966            0    0.3366951    2.0071868    580.93701 
    1500    1.1935696   -0.3915562            0   0.45815167    1.7983808     580.2071 
    2000            1  -0.46179098            0   0.25011379    1.5939805    574.23401 
    2500    1.2321777  -0.40358091            0   0.47361223    1.4719783    560.57044 
    3000            1  -0.49259387            0   0.21931089    1.5952842    544.77697 
    3500    1.2342619  -0.60575731            0   0.27291964    1.7692878    530.94464 
    4000            1  -0.65708006            0  0.054824702    2.4545315    514.16291 
    4500    1.2060773  -0.75089914            0   0.10771306    2.9336154    503.18775 
    5000            1  -0.71260225            0 -0.00069749212    3.0563587    503.03887 
    5500    1.2054602  -0.65033448            0   0.20783838    2.3709447    511.24513 
    6000            1  -0.65516674            0  0.056738025     2.078019    516.69112 
    6500    1.2369611  -0.65312438            0   0.22747408    1.8959293    515.39639 
    7000            1  -0.65677305            0  0.055131716    1.9682726    515.25021 
    7500    1.2122176  -0.73518885            0    0.1277946     2.176874     511.8357 
    8000            1  -0.76420727            0 -0.052302506    2.3340312    507.77328 
    8500    1.2149022  -0.75089272            0   0.11400197     2.466888    505.63048 
    9000            1  -0.82985135            0  -0.11794659    2.3850233    504.69624 
    9500    1.2228176  -0.72697274            0   0.14355696    2.2387683    505.48646 
   10000            1  -0.75923822            0 -0.047333456    2.3066235     505.0656 
Loop time of 0.206018 on 8 procs for 10000 steps with 420 atoms

Performance: 12581437.704 tau/day, 48539.497 timesteps/s
99.6% CPU use with 8 MPI tasks x no OpenMP threads

MPI task timing breakdown:
Section |  min time  |  avg time  |  max time  |%varavg| %total
---------------------------------------------------------------
Pair    | 0.012234   | 0.013375   | 0.014723   |   0.6 |  6.49
Neigh   | 0.005003   | 0.0052325  | 0.00551    |   0.2 |  2.54
Comm    | 0.096483   | 0.099442   | 0.10276    |   0.8 | 48.27
Output  | 0.00040099 | 0.00041646 | 0.00048011 |   0.0 |  0.20
Modify  | 0.052989   | 0.056314   | 0.060002   |   1.1 | 27.33
Other   |            | 0.03124    |            |       | 15.16

Nlocal:    52.5 ave 55 max 51 min
Histogram: 2 0 2 0 0 3 0 0 0 1
Nghost:    36.125 ave 38 max 32 min
Histogram: 1 0 0 0 0 1 1 0 4 1
Neighs:    141.75 ave 157 max 131 min
Histogram: 1 1 1 2 0 1 1 0 0 1

Total # of neighbors = 1134
Ave neighs/atom = 2.7
Neighbor list builds = 559
Dangerous builds = 0
Total wall time: 0:00:00
