LAMMPS (4 Jan 2019)
Running on 4 partitions of processors
Step CPU Clock Event Correlated Coincident Replica
100 0.000 0 0 0 0 0
100 0.194 0 0 0 0 0
100 0.251 0 0 0 0 0
100 0.309 0 0 0 0 0
100 0.337 0 0 0 0 0
200 0.549 400 1 0 4 1
300 0.680 500 2 1 1 1
500 1.244 772 3 0 2 2
800 1.935 1328 4 0 2 2
1000 2.500 1636 5 0 1 3
1000 2.846 1636 5 0 1 3
1200 3.153 1908 6 0 1 2
1300 3.284 2008 7 1 1 2
1900 4.388 4024 8 0 1 3
1900 4.580 4024 8 0 1 3
1900 4.698 4024 8 0 1 3
1900 4.758 4024 8 0 1 3
2100 5.035 4220 9 0 2 3
Loop time of 5.0368 on 8 procs for 2000 steps with 511 atoms
