LAMMPS (4 Jan 2019)
# Point dipoles in a 2d box

units		lj
atom_style	hybrid sphere dipole
dimension	2

lattice		sq2 0.7
Lattice spacing in x,y,z = 1.69031 1.69031 1.69031
region		box block 0 10 0 10 -0.5 0.5
create_box	1 box
Created orthogonal box = (0 0 -0.845154) to (16.9031 16.9031 0.845154)
  4 by 2 by 1 MPI processor grid
create_atoms	1 box
Created 200 atoms
  Time spent = 0.00105645 secs

# need both mass settings due to hybrid atom style

mass		1 1.0
set		group all mass 1.0
  200 settings made for mass
set		group all dipole/random 98934 0.75
  200 settings made for dipole/random

velocity	all create 0.0 87287 mom no

pair_style	lj/cut/dipole/cut 2.5
pair_coeff	* * 1.0 1.0

neighbor	0.3 bin
neigh_modify	delay 0

fix		1 all nve/sphere update dipole
fix		2 all enforce2d

timestep	0.005

compute		erot all erotate/sphere
thermo_style	custom step temp epair c_erot etotal press
thermo		500

#dump		1 all custom 500 dump.dipole id type x y z mux muy

#dump		1 all image 250 image.*.jpg mux type #		zoom 1.6 adiam 1.2
#dump_modify	1 pad 5

run		10000
Neighbor list info ...
  update every 1 steps, delay 0 steps, check yes
  max neighbors/atom: 2000, page size: 100000
  master list distance cutoff = 2.8
  ghost atom cutoff = 2.8
  binsize = 1.4, bins = 13 13 2
  1 neighbor lists, perpetual/occasional/extra = 1 0 0
  (1) pair lj/cut/dipole/cut, perpetual
      attributes: half, newton on
      pair build: half/bin/atomonly/newton
      stencil: half/bin/2d/newton
      bin: standard
Per MPI rank memory allocation (min/avg/max) = 5.046 | 5.046 | 5.046 Mbytes
Step Temp E_pair c_erot TotEng Press 
       0            0   -2.1909822            0   -2.1909822   -2.5750971 
     500   0.39335419   -2.7940623   0.20683255   -2.4026749  -0.24768899 
    1000   0.45259485   -2.8743423   0.22311811   -2.4240104  -0.14864606 
    1500   0.42110221   -2.8019061   0.19532181   -2.3829095   0.18067141 
    2000   0.39019955   -2.7914871   0.22407023   -2.4032385  -0.40913769 
    2500   0.40224641   -2.8137982   0.24279497   -2.4135631  -0.33787634 
    3000   0.44999968   -2.8678065   0.25045606   -2.4200568  -0.21453118 
    3500      0.40821   -2.8079494   0.24029156   -2.4017805 -0.014177406 
    4000   0.43363412   -2.8047368    0.2077895   -2.3732708 -0.029365208 
    4500   0.43817721    -2.855073   0.25500879   -2.4190867  -0.70780279 
    5000   0.40652877   -2.7860298   0.22881156   -2.3815337  0.063998574 
    5500   0.40925139   -2.7983988   0.23805769   -2.3911937 -0.029916381 
    6000    0.4548022   -2.8009772   0.19251798    -2.348449 -0.053732727 
    6500   0.36938372    -2.748972   0.23678836   -2.3814352 -0.047109579 
    7000   0.44579729   -2.8297381   0.24228025   -2.3861697  -0.32631315 
    7500     0.430838   -2.7943503   0.24068585   -2.3656665 -0.015289791 
    8000   0.43469648   -2.7746584   0.22422385   -2.3421354  -0.37093866 
    8500   0.46219874   -2.7490223   0.18706205   -2.2891346  0.051735602 
    9000   0.47403929    -2.779632   0.21256595   -2.3079629  -0.21164244 
    9500   0.40616488   -2.7219337   0.22833137   -2.3177996   0.15482044 
   10000   0.43206787   -2.7654955   0.24440894    -2.335588  -0.15731571 
Loop time of 0.366474 on 8 procs for 10000 steps with 200 atoms

Performance: 11787997.092 tau/day, 27287.030 timesteps/s
99.8% CPU use with 8 MPI tasks x no OpenMP threads

MPI task timing breakdown:
Section |  min time  |  avg time  |  max time  |%varavg| %total
---------------------------------------------------------------
Pair    | 0.086387   | 0.11633    | 0.13543    |   4.4 | 31.74
Neigh   | 0.0050671  | 0.0060914  | 0.006823   |   0.7 |  1.66
Comm    | 0.17358    | 0.18865    | 0.22165    |   3.4 | 51.48
Output  | 0.00047052 | 0.00049001 | 0.00054303 |   0.0 |  0.13
Modify  | 0.012763   | 0.014711   | 0.01579    |   0.8 |  4.01
Other   |            | 0.04021    |            |       | 10.97

Nlocal:    25 ave 29 max 21 min
Histogram: 1 0 2 0 0 2 1 0 1 1
Nghost:    71.375 ave 76 max 67 min
Histogram: 1 3 0 0 0 1 0 0 0 3
Neighs:    204.875 ave 249 max 150 min
Histogram: 1 0 0 2 1 1 0 1 0 2

Total # of neighbors = 1639
Ave neighs/atom = 8.195
Neighbor list builds = 685
Dangerous builds = 0
Total wall time: 0:00:00
