LAMMPS (2 Aug 2023 - Development - bc02a7cc6)
# REAX potential for VOH system
# .....

units		real

atom_style	charge
read_data	data.VOH
Reading data file ...
  orthogonal box = (0 0 0) to (25 25 25)
  2 by 2 by 2 MPI processor grid
  reading atoms ...
  100 atoms
  read_data CPU = 0.004 seconds

pair_style	reax/c lmp_control
WARNING: Ignoring inactive control parameter: simulation_name (src/REAXFF/reaxff_control.cpp:98)
WARNING: Ignoring inactive control parameter: energy_update_freq (src/REAXFF/reaxff_control.cpp:98)
WARNING: Support for writing native trajectories has been removed after LAMMPS version 8 April 2021 (src/REAXFF/reaxff_control.cpp:114)
WARNING: Ignoring inactive control parameter: traj_title (src/REAXFF/reaxff_control.cpp:98)
WARNING: Ignoring inactive control parameter: atom_info (src/REAXFF/reaxff_control.cpp:98)
WARNING: Ignoring inactive control parameter: atom_forces (src/REAXFF/reaxff_control.cpp:98)
WARNING: Ignoring inactive control parameter: atom_velocities (src/REAXFF/reaxff_control.cpp:98)
WARNING: Ignoring inactive control parameter: bond_info (src/REAXFF/reaxff_control.cpp:98)
WARNING: Ignoring inactive control parameter: angle_info (src/REAXFF/reaxff_control.cpp:98)
pair_coeff	* * ffield.reax.V_O_C_H H C O V
Reading potential file ffield.reax.V_O_C_H with DATE: 2011-02-18
WARNING: Changed valency_val to valency_boc for X (src/REAXFF/reaxff_ffield.cpp:296)

neighbor	2 bin
neigh_modify	every 10 delay 0 check no

fix		1 all nve
fix             2 all qeq/reax 1 0.0 10.0 1e-6 param.qeq
fix             3 all temp/berendsen 500.0 500.0 100.0

timestep	0.25

#dump		1 all atom 30 dump.reax.voh

run		3000

CITE-CITE-CITE-CITE-CITE-CITE-CITE-CITE-CITE-CITE-CITE-CITE-CITE

Your simulation uses code contributions which should be cited:

- pair reaxff command: doi:10.1016/j.parco.2011.08.005

@Article{Aktulga12,
 author = {H. M. Aktulga and J. C. Fogarty and S. A. Pandit and A. Y. Grama},
 title = {Parallel Reactive Molecular Dynamics: {N}umerical Methods and Algorithmic Techniques},
 journal = {Parallel Computing},
 year =    2012,
 volume =  38,
 number =  {4--5},
 pages =   {245--259}
}

- fix qeq/reaxff command: doi:10.1016/j.parco.2011.08.005

@Article{Aktulga12,
 author = {H. M. Aktulga and J. C. Fogarty and S. A. Pandit and A. Y. Grama},
 title = {Parallel Reactive Molecular Dynamics: {N}umerical Methods and Algorithmic Techniques},
 journal = {Parallel Computing},
 year =    2012,
 volume =  38,
 pages =   {245--259}
}

CITE-CITE-CITE-CITE-CITE-CITE-CITE-CITE-CITE-CITE-CITE-CITE-CITE

Neighbor list info ...
  update: every = 10 steps, delay = 0 steps, check = no
  max neighbors/atom: 2000, page size: 100000
  master list distance cutoff = 12
  ghost atom cutoff = 12
  binsize = 6, bins = 5 5 5
  2 neighbor lists, perpetual/occasional/extra = 2 0 0
  (1) pair reax/c, perpetual
      attributes: half, newton off, ghost
      pair build: half/bin/newtoff/ghost
      stencil: full/ghost/bin/3d
      bin: standard
  (2) fix qeq/reax, perpetual, copy from (1)
      attributes: half, newton off
      pair build: copy
      stencil: none
      bin: none
Per MPI rank memory allocation (min/avg/max) = 8.523 | 9.766 | 10.79 Mbytes
   Step          Temp          E_pair         E_mol          TotEng         Press     
         0   0             -10246.825      0             -10246.825      42.256092    
      3000   507.92537     -10193.103      0             -10043.214     -914.43285    
Loop time of 5.21984 on 8 procs for 3000 steps with 100 atoms

Performance: 12.414 ns/day, 1.933 hours/ns, 574.730 timesteps/s, 57.473 katom-step/s
99.6% CPU use with 8 MPI tasks x no OpenMP threads

MPI task timing breakdown:
Section |  min time  |  avg time  |  max time  |%varavg| %total
---------------------------------------------------------------
Pair    | 1.5541     | 2.0627     | 2.8909     |  25.3 | 39.52
Neigh   | 0.13429    | 0.16918    | 0.19687    |   5.5 |  3.24
Comm    | 0.18335    | 0.98147    | 1.51       |  36.2 | 18.80
Output  | 0.00010224 | 0.00010778 | 0.00012719 |   0.0 |  0.00
Modify  | 1.9451     | 2.0022     | 2.1504     |   4.3 | 38.36
Other   |            | 0.004109   |            |       |  0.08

Nlocal:           12.5 ave          23 max           0 min
Histogram: 1 0 1 0 2 1 1 0 0 2
Nghost:        283.375 ave         376 max         188 min
Histogram: 1 0 0 3 0 1 1 1 0 1
Neighs:          583.5 ave        1251 max           0 min
Histogram: 1 0 2 2 0 0 1 0 1 1

Total # of neighbors = 4668
Ave neighs/atom = 46.68
Neighbor list builds = 300
Dangerous builds not checked
Total wall time: 0:00:05
