LAMMPS (4 Jan 2019)
# REAX potential for VOH system
# .....

units		real

atom_style	charge
read_data	data.VOH
  orthogonal box = (0 0 0) to (25 25 25)
  2 by 2 by 2 MPI processor grid
  reading atoms ...
  100 atoms

pair_style	reax/c lmp_control
pair_coeff	* * ffield.reax.V_O_C_H H C O V
Reading potential file ffield.reax.V_O_C_H with DATE: 2011-02-18

neighbor	2 bin
neigh_modify	every 10 delay 0 check no

fix		1 all nve
fix             2 all qeq/reax 1 0.0 10.0 1e-6 param.qeq
fix             3 all temp/berendsen 500.0 500.0 100.0

timestep	0.25

#dump		1 all atom 30 dump.reax.voh

run		3000
Neighbor list info ...
  update every 10 steps, delay 0 steps, check no
  max neighbors/atom: 2000, page size: 100000
  master list distance cutoff = 12
  ghost atom cutoff = 12
  binsize = 6, bins = 5 5 5
  2 neighbor lists, perpetual/occasional/extra = 2 0 0
  (1) pair reax/c, perpetual
      attributes: half, newton off, ghost
      pair build: half/bin/newtoff/ghost
      stencil: half/ghost/bin/3d/newtoff
      bin: standard
  (2) fix qeq/reax, perpetual, copy from (1)
      attributes: half, newton off, ghost
      pair build: copy
      stencil: none
      bin: none
Per MPI rank memory allocation (min/avg/max) = 9.292 | 10.79 | 12.03 Mbytes
Step Temp E_pair E_mol TotEng Press 
       0            0   -10246.825            0   -10246.825    42.256092 
    3000    515.23804   -10195.492            0   -10043.445   -246.37714 
Loop time of 5.13704 on 8 procs for 3000 steps with 100 atoms

Performance: 12.614 ns/day, 1.903 hours/ns, 583.993 timesteps/s
99.8% CPU use with 8 MPI tasks x no OpenMP threads

MPI task timing breakdown:
Section |  min time  |  avg time  |  max time  |%varavg| %total
---------------------------------------------------------------
Pair    | 3.3138     | 3.3881     | 3.4974     |   3.4 | 65.95
Neigh   | 0.08557    | 0.11646    | 0.14431    |   5.2 |  2.27
Comm    | 0.087934   | 0.19177    | 0.25857    |  13.1 |  3.73
Output  | 3.2872e-05 | 3.4734e-05 | 4.4437e-05 |   0.0 |  0.00
Modify  | 1.4143     | 1.4391     | 1.4629     |   1.2 | 28.01
Other   |            | 0.001598   |            |       |  0.03

Nlocal:    12.5 ave 23 max 0 min
Histogram: 1 0 1 0 2 1 1 0 0 2
Nghost:    283.375 ave 374 max 188 min
Histogram: 1 0 0 3 0 1 1 0 1 1
Neighs:    585.5 ave 1257 max 0 min
Histogram: 1 0 2 2 0 0 1 0 1 1

Total # of neighbors = 4684
Ave neighs/atom = 46.84
Neighbor list builds = 300
Dangerous builds not checked

Please see the log.cite file for references relevant to this simulation

Total wall time: 0:00:05
