LAMMPS (4 Jan 2019)
variable	name string mixer

thermo_modify	flush yes
variable	seed equal 14314

###############################################
# Particle parameters
################################################

variable	rlo equal 0.3
variable	rhi equal 0.6
variable	dlo equal 2.0*${rlo}
variable	dlo equal 2.0*0.3
variable	dhi equal 2.0*${rhi}
variable	dhi equal 2.0*0.6
variable 	skin equal ${rhi}
variable 	skin equal 0.6

variable	coeffRes equal 0.1
variable	coeffFric equal 0.5

variable	kn equal 10^5
variable	kt equal 0.2*${kn}
variable	kt equal 0.2*100000

variable	gravity equal 1.0
variable	density equal 1.0

variable	min_mass equal ${density}*4.0/3.0*PI*${rlo}*${rlo}*${rlo}
variable	min_mass equal 1*4.0/3.0*PI*${rlo}*${rlo}*${rlo}
variable	min_mass equal 1*4.0/3.0*PI*0.3*${rlo}*${rlo}
variable	min_mass equal 1*4.0/3.0*PI*0.3*0.3*${rlo}
variable	min_mass equal 1*4.0/3.0*PI*0.3*0.3*0.3
variable	a equal (-2.0*log(${coeffRes})/PI)^2
variable	a equal (-2.0*log(0.1)/PI)^2
variable        gamma_n equal sqrt($a*2*${kn}/${min_mass}/(1+0.25*$a))
variable        gamma_n equal sqrt(0.405284734569351*2*${kn}/${min_mass}/(1+0.25*$a))
variable        gamma_n equal sqrt(0.405284734569351*2*100000/${min_mass}/(1+0.25*$a))
variable        gamma_n equal sqrt(0.405284734569351*2*100000/0.113097335529233/(1+0.25*$a))
variable        gamma_n equal sqrt(0.405284734569351*2*100000/0.113097335529233/(1+0.25*0.405284734569351))
variable        gamma_t equal ${gamma_n}*0.5
variable        gamma_t equal 806.699778405191*0.5

variable	tcol equal PI/sqrt(2*${kn}/${min_mass}-${gamma_n}/4.0)
variable	tcol equal PI/sqrt(2*100000/${min_mass}-${gamma_n}/4.0)
variable	tcol equal PI/sqrt(2*100000/0.113097335529233-${gamma_n}/4.0)
variable	tcol equal PI/sqrt(2*100000/0.113097335529233-806.699778405191/4.0)

variable	dt equal ${tcol}*0.02
variable	dt equal 0.00236257621510454*0.02
timestep	${dt}
timestep	4.72515243020908e-05

###############################################

variable	dumpfreq equal 1000
variable	logfreq equal 1000

newton 		on
atom_style	sphere

boundary	p p f

region		boxreg block 0 20 0 20 0 20
create_box	1 boxreg
Created orthogonal box = (0 0 0) to (20 20 20)
  2 by 2 by 2 MPI processor grid

pair_style	gran/hertz/history 		${kn} ${kt} ${gamma_n} ${gamma_t} ${coeffFric} 1
pair_style	gran/hertz/history 		100000 ${kt} ${gamma_n} ${gamma_t} ${coeffFric} 1
pair_style	gran/hertz/history 		100000 20000 ${gamma_n} ${gamma_t} ${coeffFric} 1
pair_style	gran/hertz/history 		100000 20000 806.699778405191 ${gamma_t} ${coeffFric} 1
pair_style	gran/hertz/history 		100000 20000 806.699778405191 403.349889202595 ${coeffFric} 1
pair_style	gran/hertz/history 		100000 20000 806.699778405191 403.349889202595 0.5 1
pair_coeff	* *

neighbor        ${skin} bin
neighbor        0.6 bin
thermo 		${logfreq}
thermo 		1000

comm_style	brick
comm_modify 	mode multi group all vel yes
balance		1.1 shift xyz 20 1.1
Neighbor list info ...
  update every 1 steps, delay 10 steps, check yes
  max neighbors/atom: 2000, page size: 100000
  master list distance cutoff = 0
  ghost atom cutoff = 0
  binsize = 20, bins = 1 1 1
  1 neighbor lists, perpetual/occasional/extra = 1 0 0
  (1) pair gran/hertz/history, perpetual
      attributes: half, newton on, size, history
      pair build: half/size/bin/newton
      stencil: half/bin/3d/newton
      bin: standard
fix		bal all balance 10000 1.1 shift xyz 20 1.01

####################### Options specific to pouring #########################

region	     	insreg cylinder z 10 10 8 10 18 side in units box
region	    	cylreg cylinder z 10 10 10 0 20 side in units box

variable	theta equal (step/400000)*2*PI

region          b1 block 2 18 9 11 0 4 side out                 rotate v_theta 10 10 0 0 0 1 units box
region          b2 block 9 11 2 18 0 3.99999 side out                 rotate v_theta 10 10 0 0 0 1 units box

region		mixer intersect 3 cylreg b1 b2 side in

fix		grav all gravity ${gravity} vector 0 0 -1
fix		grav all gravity 1 vector 0 0 -1
fix		1 all nve/sphere

fix		mixwall all wall/gran/region hertz/history                 ${kn} ${kt} ${gamma_n} ${gamma_t} ${coeffFric} 1 region mixer
fix		mixwall all wall/gran/region hertz/history                 100000 ${kt} ${gamma_n} ${gamma_t} ${coeffFric} 1 region mixer
fix		mixwall all wall/gran/region hertz/history                 100000 20000 ${gamma_n} ${gamma_t} ${coeffFric} 1 region mixer
fix		mixwall all wall/gran/region hertz/history                 100000 20000 806.699778405191 ${gamma_t} ${coeffFric} 1 region mixer
fix		mixwall all wall/gran/region hertz/history                 100000 20000 806.699778405191 403.349889202595 ${coeffFric} 1 region mixer
fix		mixwall all wall/gran/region hertz/history                 100000 20000 806.699778405191 403.349889202595 0.5 1 region mixer

fix		ins all pour 1000 1 42424 region insreg 		diam range ${dlo} ${dhi} dens ${density} ${density}
fix		ins all pour 1000 1 42424 region insreg 		diam range 0.6 ${dhi} dens ${density} ${density}
fix		ins all pour 1000 1 42424 region insreg 		diam range 0.6 1.2 dens ${density} ${density}
fix		ins all pour 1000 1 42424 region insreg 		diam range 0.6 1.2 dens 1 ${density}
fix		ins all pour 1000 1 42424 region insreg 		diam range 0.6 1.2 dens 1 1
Particle insertion: 444 every 84653 steps, 1000 by step 169307

#dump		1 all custom ${dumpfreq} ${name}_pour.dump #		id type mass diameter x y z

#dump		2 all image 4000 image.*.jpg type type #		axes yes 0.8 0.02 view 60 -30 zoom 1.5 #                box no 0.0 axes no 0.0 0.0
#dump_modify	2 pad 6

thermo_style	custom step cpu atoms ke v_theta
WARNING: New thermo_style command, previous thermo_modify settings will be lost (../output.cpp:705)
thermo_modify	flush yes lost warn

run		200000
Per MPI rank memory allocation (min/avg/max) = 5.805 | 5.805 | 5.805 Mbytes
Step CPU Atoms KinEng v_theta 
       0            0        0           -0            0 
    1000  0.067064835      444           -0  0.015707963 
    2000   0.12655053      444           -0  0.031415927 
    3000   0.18721425      444           -0   0.04712389 
    4000   0.24843039      444           -0  0.062831853 
    5000   0.30932095      444           -0  0.078539816 
    6000   0.37015658      444           -0   0.09424778 
    7000   0.43093319      444           -0   0.10995574 
    8000   0.49148358      444           -0   0.12566371 
    9000   0.54630539      444           -0   0.14137167 
   10000   0.60568263      444           -0   0.15707963 
   11000   0.65278135      444           -0    0.1727876 
   12000   0.69917125      444           -0   0.18849556 
   13000   0.74509178      444           -0   0.20420352 
   14000   0.79010305      444           -0   0.21991149 
   15000   0.83500053      444           -0   0.23561945 
   16000    0.8795607      444           -0   0.25132741 
   17000   0.92526058      444           -0   0.26703538 
   18000   0.97199367      444           -0   0.28274334 
   19000    1.0168835      444           -0    0.2984513 
   20000    1.0619935      444           -0   0.31415927 
   21000    1.1044367      444           -0   0.32986723 
   22000    1.1466564      444           -0   0.34557519 
   23000    1.1887123      444           -0   0.36128316 
   24000    1.2309808      444           -0   0.37699112 
   25000    1.2735618      444           -0   0.39269908 
   26000    1.3171649      444           -0   0.40840704 
   27000     1.360719      444           -0   0.42411501 
   28000    1.4051089      444           -0   0.43982297 
   29000    1.4492124      444           -0   0.45553093 
   30000    1.4938625      444           -0    0.4712389 
   31000    1.5357879      444           -0   0.48694686 
   32000    1.5776972      444           -0   0.50265482 
   33000    1.6191542      444           -0   0.51836279 
   34000    1.6613112      444           -0   0.53407075 
   35000    1.7039497      444           -0   0.54977871 
   36000    1.7467494      444           -0   0.56548668 
   37000    1.7899537      444           -0   0.58119464 
   38000     1.833741      444           -0    0.5969026 
   39000    1.8773849      444           -0   0.61261057 
   40000    1.9217224      444           -0   0.62831853 
   41000    1.9631541      444           -0   0.64402649 
   42000    2.0046901      444           -0   0.65973446 
   43000     2.046339      444           -0   0.67544242 
   44000    2.0873099      444           -0   0.69115038 
   45000    2.1279399      444           -0   0.70685835 
   46000    2.1692892      444           -0   0.72256631 
   47000    2.2108499      444           -0   0.73827427 
   48000    2.2537118      444           -0   0.75398224 
   49000    2.2964355      444           -0    0.7696902 
   50000    2.3397238      444           -0   0.78539816 
   51000    2.3811146      444           -0   0.80110613 
   52000    2.4218586      444           -0   0.81681409 
   53000    2.4631146      444           -0   0.83252205 
   54000    2.5049057      444           -0   0.84823002 
   55000    2.5486131      444           -0   0.86393798 
   56000     2.593265      444           -0   0.87964594 
   57000     2.638232      444           -0   0.89535391 
   58000    2.6837586      444           -0   0.91106187 
   59000    2.7294867      444           -0   0.92676983 
   60000    2.7757389      444           -0    0.9424778 
   61000    2.8192756      444           -0   0.95818576 
   62000    2.8629634      444           -0   0.97389372 
   63000    2.9072005      444           -0   0.98960169 
   64000    2.9528437      444           -0    1.0053096 
   65000    2.9996198      444           -0    1.0210176 
   66000    3.0460314      444           -0    1.0367256 
   67000    3.0937642      444           -0    1.0524335 
   68000    3.1419158      444           -0    1.0681415 
   69000    3.1902272      444           -0    1.0838495 
   70000    3.2388029      444           -0    1.0995574 
   71000    3.2861325      444           -0    1.1152654 
   72000     3.333765      444           -0    1.1309734 
   73000    3.3811092      444           -0    1.1466813 
   74000    3.4291699      444           -0    1.1623893 
   75000    3.4768323      444           -0    1.1780972 
   76000    3.5252775      444           -0    1.1938052 
   77000     3.573581      444           -0    1.2095132 
   78000    3.6229509      444           -0    1.2252211 
   79000    3.6723164      444           -0    1.2409291 
   80000     3.722971      444           -0    1.2566371 
   81000    3.7708811      444           -0     1.272345 
   82000    3.8201303      444           -0     1.288053 
   83000    3.8700275      444           -0     1.303761 
   84000    3.9220148      444           -0    1.3194689 
   85000    3.9938271      888           -0    1.3351769 
   86000    4.0955351      888           -0    1.3508848 
   87000    4.1982838      888           -0    1.3665928 
   88000    4.3064329      888           -0    1.3823008 
   89000    4.4158714      888           -0    1.3980087 
   90000    4.5255206      888           -0    1.4137167 
   91000    4.6040412      888           -0    1.4294247 
   92000    4.6821669      888           -0    1.4451326 
   93000    4.7585494      888           -0    1.4608406 
   94000    4.8344674      888           -0    1.4765485 
   95000    4.9099013      888           -0    1.4922565 
   96000    4.9846343      888           -0    1.5079645 
   97000    5.0586506      888           -0    1.5236724 
   98000    5.1321178      888           -0    1.5393804 
   99000    5.2059036      888           -0    1.5550884 
  100000    5.2800931      888           -0    1.5707963 
  101000    5.3590588      888           -0    1.5865043 
  102000    5.4373685      888           -0    1.6022123 
  103000    5.5148886      888           -0    1.6179202 
  104000    5.5924294      888           -0    1.6336282 
  105000    5.6687688      888           -0    1.6493361 
  106000    5.7440184      888           -0    1.6650441 
  107000    5.8190195      888           -0    1.6807521 
  108000    5.8940317      888           -0      1.69646 
  109000    5.9710651      888           -0     1.712168 
  110000     6.048232      888           -0     1.727876 
  111000    6.1351631      888           -0    1.7435839 
  112000    6.2221635      888           -0    1.7592919 
  113000    6.3083284      888           -0    1.7749998 
  114000    6.3939219      888           -0    1.7907078 
  115000    6.4802306      888           -0    1.8064158 
  116000    6.5664268      888           -0    1.8221237 
  117000    6.6521483      888           -0    1.8378317 
  118000    6.7374591      888           -0    1.8535397 
  119000    6.8239123      888           -0    1.8692476 
  120000    6.9109089      888           -0    1.8849556 
  121000    7.0022704      888           -0    1.9006636 
  122000    7.0930562      888           -0    1.9163715 
  123000    7.1827189      888           -0    1.9320795 
  124000    7.2724492      888           -0    1.9477874 
  125000    7.3619437      888           -0    1.9634954 
  126000    7.4512426      888           -0    1.9792034 
  127000    7.5409747      888           -0    1.9949113 
  128000    7.6319397      888           -0    2.0106193 
  129000    7.7212343      888           -0    2.0263273 
  130000    7.8101977      888           -0    2.0420352 
  131000    7.9022683      888           -0    2.0577432 
  132000     7.994636      888           -0    2.0734512 
  133000      8.08586      888           -0    2.0891591 
  134000      8.17665      888           -0    2.1048671 
  135000    8.2653889      888           -0     2.120575 
  136000    8.3535054      888           -0     2.136283 
  137000    8.4408984      888           -0     2.151991 
  138000    8.5295583      888           -0    2.1676989 
  139000    8.6187542      888           -0    2.1834069 
  140000     8.710447      888           -0    2.1991149 
  141000    8.8013612      888           -0    2.2148228 
  142000    8.8921432      888           -0    2.2305308 
  143000    8.9809804      888           -0    2.2462387 
  144000    9.0701103      888           -0    2.2619467 
  145000    9.1606818      888           -0    2.2776547 
  146000    9.2565769      888           -0    2.2933626 
  147000    9.3532479      888           -0    2.3090706 
  148000    9.4519036      888           -0    2.3247786 
  149000    9.5515408      888           -0    2.3404865 
  150000    9.6533351      888           -0    2.3561945 
  151000    9.7491863      888           -0    2.3719025 
  152000    9.8467367      888           -0    2.3876104 
  153000    9.9479164      888           -0    2.4033184 
  154000    10.052382      888           -0    2.4190263 
  155000    10.159079      888           -0    2.4347343 
  156000    10.271976      888           -0    2.4504423 
  157000    10.385225      888           -0    2.4661502 
  158000      10.5011      888           -0    2.4818582 
  159000    10.618107      888           -0    2.4975662 
  160000    10.736514      888           -0    2.5132741 
  161000    10.854949      888           -0    2.5289821 
  162000    10.974504      888           -0      2.54469 
  163000    11.093948      888           -0     2.560398 
  164000    11.214753      888           -0     2.576106 
  165000    11.336876      888           -0    2.5918139 
  166000    11.460718      888           -0    2.6075219 
  167000    11.585676      888           -0    2.6232299 
  168000    11.713691      888           -0    2.6389378 
  169000    11.843736      888           -0    2.6546458 
  170000    11.975262     1000           -0    2.6703538 
  171000    12.105479     1000           -0    2.6860617 
  172000    12.236768     1000           -0    2.7017697 
  173000    12.372154     1000           -0    2.7174776 
  174000    12.504671     1000           -0    2.7331856 
  175000    12.638251     1000           -0    2.7488936 
  176000    12.772622     1000           -0    2.7646015 
  177000    12.907492     1000           -0    2.7803095 
  178000    13.041116     1000           -0    2.7960175 
  179000    13.173882     1000           -0    2.8117254 
  180000    13.307287     1000           -0    2.8274334 
  181000    13.440296     1000           -0    2.8431414 
  182000    13.573766     1000           -0    2.8588493 
  183000    13.707809     1000           -0    2.8745573 
  184000     13.84194     1000           -0    2.8902652 
  185000    13.976978     1000           -0    2.9059732 
  186000    14.111919     1000           -0    2.9216812 
  187000    14.246415     1000           -0    2.9373891 
  188000    14.382347     1000           -0    2.9530971 
  189000    14.516385     1000           -0    2.9688051 
  190000     14.65111     1000           -0     2.984513 
  191000    14.782333     1000           -0     3.000221 
  192000    14.914208     1000           -0    3.0159289 
  193000    15.046563     1000           -0    3.0316369 
  194000    15.178484     1000           -0    3.0473449 
  195000    15.309692     1000           -0    3.0630528 
  196000    15.441478     1000           -0    3.0787608 
  197000    15.572385     1000           -0    3.0944688 
  198000    15.701613     1000           -0    3.1101767 
  199000    15.830215     1000           -0    3.1258847 
  200000    15.960558     1000           -0    3.1415927 
Loop time of 15.9606 on 8 procs for 200000 steps with 1000 atoms

Performance: 51157.682 tau/day, 12530.872 timesteps/s
98.9% CPU use with 8 MPI tasks x no OpenMP threads

MPI task timing breakdown:
Section |  min time  |  avg time  |  max time  |%varavg| %total
---------------------------------------------------------------
Pair    | 0.21661    | 0.42405    | 0.64578    |  29.0 |  2.66
Neigh   | 0.0071236  | 0.0094116  | 0.011348   |   1.7 |  0.06
Comm    | 5.9085     | 6.298      | 6.7518     |  12.9 | 39.46
Output  | 0.0041611  | 0.0047575  | 0.0056725  |   0.8 |  0.03
Modify  | 6.1229     | 7.021      | 7.6689     |  19.7 | 43.99
Other   |            | 2.203      |            |       | 13.81

Nlocal:    125 ave 133 max 114 min
Histogram: 1 0 0 0 2 1 2 0 1 1
Nghost:    189.375 ave 252 max 124 min
Histogram: 1 1 0 1 1 1 0 1 1 1
Neighs:    495.875 ave 752 max 253 min
Histogram: 2 2 0 0 0 0 0 1 1 2

Total # of neighbors = 3967
Ave neighs/atom = 3.967
Neighbor list builds = 219
Dangerous builds = 0
unfix 		ins
run		200000
Per MPI rank memory allocation (min/avg/max) = 11.96 | 12.13 | 12.32 Mbytes
Step CPU Atoms KinEng v_theta 
  200000            0     1000   0.93721254    3.1415927 
  201000   0.12789941     1000   0.93187498    3.1573006 
  202000   0.25609606     1000   0.91885534    3.1730086 
  203000   0.38608191     1000    0.9222889    3.1887165 
  204000   0.51842922     1000   0.91820294    3.2044245 
  205000   0.64700327     1000   0.92157384    3.2201325 
  206000   0.77268283     1000   0.91939468    3.2358404 
  207000   0.89818244     1000   0.93450425    3.2515484 
  208000    1.0245261     1000   0.93943266    3.2672564 
  209000    1.1521992     1000   0.93513887    3.2829643 
  210000    1.2808747     1000   0.92693574    3.2986723 
  211000    1.4086615     1000    0.9227376    3.3143802 
  212000    1.5354187     1000   0.92144103    3.3300882 
  213000    1.6620289     1000    0.9200738    3.3457962 
  214000     1.789235     1000    0.9131761    3.3615041 
  215000    1.9152211     1000   0.90782708    3.3772121 
  216000    2.0413245     1000   0.89780889    3.3929201 
  217000     2.168383     1000   0.89960081     3.408628 
  218000     2.296801     1000   0.89487384     3.424336 
  219000    2.4229165     1000   0.89086626     3.440044 
  220000    2.5504983     1000   0.89236121    3.4557519 
  221000     2.676216     1000   0.89887717    3.4714599 
  222000    2.8041008     1000   0.89553139    3.4871678 
  223000    2.9328085     1000   0.89341984    3.5028758 
  224000    3.0628191     1000   0.89326032    3.5185838 
  225000    3.1939594     1000   0.89187822    3.5342917 
  226000    3.3266988     1000   0.88014119    3.5499997 
  227000    3.4590251     1000     0.872806    3.5657077 
  228000    3.5930385     1000   0.87350356    3.5814156 
  229000    3.7280573     1000   0.88157709    3.5971236 
  230000     3.861714     1000   0.88508488    3.6128316 
  231000    3.9941356     1000   0.89647371    3.6285395 
  232000      4.12848     1000   0.90622711    3.6442475 
  233000    4.2631742     1000   0.90131272    3.6599554 
  234000    4.3985643     1000   0.89466119    3.6756634 
  235000    4.5348059     1000   0.87498253    3.6913714 
  236000    4.6721108     1000   0.85759164    3.7070793 
  237000    4.8090295     1000   0.84387132    3.7227873 
  238000    4.9464881     1000    0.8401379    3.7384953 
  239000    5.0857838     1000   0.83267202    3.7542032 
  240000    5.2263248     1000   0.83301845    3.7699112 
  241000    5.3638247     1000   0.84476872    3.7856191 
  242000    5.5007139     1000   0.83756558    3.8013271 
  243000     5.637596     1000   0.83230215    3.8170351 
  244000    5.7736978     1000   0.82816757     3.832743 
  245000    5.9101978     1000   0.82485477     3.848451 
  246000    6.0499646     1000    0.8192315     3.864159 
  247000    6.1912317     1000   0.81976932    3.8798669 
  248000    6.3298195     1000    0.8182981    3.8955749 
  249000    6.4692142     1000   0.81550039    3.9112829 
  250000    6.6114017     1000   0.81161571    3.9269908 
  251000    6.7527907     1000   0.81345934    3.9426988 
  252000    6.8960325     1000   0.81297043    3.9584067 
  253000    7.0390647     1000   0.79958176    3.9741147 
  254000    7.1826772     1000   0.80620196    3.9898227 
  255000    7.3247811     1000   0.79843142    4.0055306 
  256000    7.4661649     1000   0.80600381    4.0212386 
  257000    7.6055213     1000   0.79804478    4.0369466 
  258000    7.7456329     1000   0.79726331    4.0526545 
  259000    7.8864899     1000   0.79598427    4.0683625 
  260000    8.0297199     1000   0.79183294    4.0840704 
  261000     8.171626     1000   0.78559351    4.0997784 
  262000    8.3144941     1000   0.78763214    4.1154864 
  263000    8.4588955     1000   0.78630185    4.1311943 
  264000    8.6030663     1000    0.7854899    4.1469023 
  265000    8.7467904     1000   0.79373599    4.1626103 
  266000    8.8901498     1000   0.80324224    4.1783182 
  267000    9.0334763     1000   0.79645264    4.1940262 
  268000    9.1768923     1000   0.78257488    4.2097342 
  269000    9.3214349     1000   0.79197605    4.2254421 
  270000    9.4666661     1000   0.79530125    4.2411501 
  271000    9.6116588     1000   0.78396282     4.256858 
  272000    9.7573495     1000   0.77065475     4.272566 
  273000    9.9023425     1000   0.76042993     4.288274 
  274000    10.046572     1000   0.75193079    4.3039819 
  275000    10.190162     1000   0.74166504    4.3196899 
  276000    10.332693     1000   0.73440293    4.3353979 
  277000    10.474626     1000   0.73080113    4.3511058 
  278000    10.616945     1000   0.72441252    4.3668138 
  279000    10.764048     1000   0.71991641    4.3825218 
  280000    10.911037     1000   0.72760582    4.3982297 
  281000    11.056855     1000   0.72675037    4.4139377 
  282000    11.202301     1000   0.71859817    4.4296456 
  283000    11.346756     1000    0.7152745    4.4453536 
  284000    11.490033     1000   0.72081297    4.4610616 
  285000    11.632109     1000   0.71660464    4.4767695 
  286000    11.771631     1000   0.71269003    4.4924775 
  287000    11.911372     1000   0.71159509    4.5081855 
  288000     12.05074     1000   0.71474611    4.5238934 
  289000    12.190404     1000   0.71345653    4.5396014 
  290000    12.331412     1000   0.71383149    4.5553093 
  291000    12.470237     1000   0.72132579    4.5710173 
  292000    12.609099     1000    0.7312974    4.5867253 
  293000    12.743275     1000   0.74222413    4.6024332 
  294000    12.878432     1000   0.75717932    4.6181412 
  295000    13.012684     1000   0.75786224    4.6338492 
  296000    13.146077     1000    0.7531655    4.6495571 
  297000    13.278125     1000   0.75976297    4.6652651 
  298000    13.411082     1000   0.76155567    4.6809731 
  299000    13.542995     1000   0.75569897     4.696681 
  300000    13.674853     1000   0.75317137     4.712389 
  301000    13.807439     1000   0.75191819    4.7280969 
  302000    13.939967     1000   0.75907221    4.7438049 
  303000    14.071424     1000   0.75925626    4.7595129 
  304000    14.200788     1000    0.7554675    4.7752208 
  305000    14.331215     1000   0.74511123    4.7909288 
  306000    14.460722     1000   0.74230046    4.8066368 
  307000    14.589548     1000   0.73312621    4.8223447 
  308000    14.718169     1000   0.72922029    4.8380527 
  309000    14.851106     1000   0.72176823    4.8537606 
  310000    14.983986     1000   0.71453817    4.8694686 
  311000    15.115707     1000   0.70970521    4.8851766 
  312000    15.246936     1000   0.70449236    4.9008845 
  313000    15.379285     1000   0.69483979    4.9165925 
  314000    15.511596     1000     0.692113    4.9323005 
  315000     15.64508     1000   0.69785124    4.9480084 
  316000    15.780074     1000   0.69582713    4.9637164 
  317000    15.914753     1000   0.69533203    4.9794244 
  318000    16.048902     1000   0.69259778    4.9951323 
  319000    16.183811     1000   0.69267909    5.0108403 
  320000    16.319718     1000   0.68916753    5.0265482 
  321000    16.452915     1000   0.67983338    5.0422562 
  322000    16.589082     1000    0.6818236    5.0579642 
  323000     16.72653     1000   0.68302743    5.0736721 
  324000    16.865974     1000   0.67628443    5.0893801 
  325000    17.004621     1000    0.6717844    5.1050881 
  326000     17.14209     1000    0.6692933     5.120796 
  327000    17.279817     1000   0.67272544     5.136504 
  328000    17.417176     1000   0.66709799     5.152212 
  329000    17.553974     1000   0.66011098    5.1679199 
  330000    17.691973     1000   0.65773936    5.1836279 
  331000    17.828212     1000   0.66131391    5.1993358 
  332000    17.965506     1000   0.66528523    5.2150438 
  333000     18.10119     1000   0.66670067    5.2307518 
  334000    18.239303     1000   0.66074602    5.2464597 
  335000    18.381047     1000   0.66303757    5.2621677 
  336000      18.5232     1000   0.67374734    5.2778757 
  337000    18.666603     1000     0.665858    5.2935836 
  338000    18.809276     1000   0.66511826    5.3092916 
  339000    18.951616     1000    0.6742545    5.3249995 
  340000    19.093682     1000   0.67243763    5.3407075 
  341000     19.23666     1000   0.66670946    5.3564155 
  342000    19.379099     1000   0.65728472    5.3721234 
  343000    19.521368     1000   0.65284702    5.3878314 
  344000    19.663975     1000   0.65456838    5.4035394 
  345000     19.80817     1000   0.65747991    5.4192473 
  346000    19.954387     1000   0.66282199    5.4349553 
  347000    20.103778     1000   0.66961855    5.4506633 
  348000    20.251966     1000   0.67634209    5.4663712 
  349000    20.398583     1000   0.67373609    5.4820792 
  350000    20.545363     1000   0.66515075    5.4977871 
  351000    20.691377     1000   0.66533545    5.5134951 
  352000    20.836694     1000   0.65800689    5.5292031 
  353000    20.980966     1000    0.6558347     5.544911 
  354000    21.125324     1000   0.64483704     5.560619 
  355000    21.270161     1000   0.63933772     5.576327 
  356000    21.413785     1000   0.64316403    5.5920349 
  357000    21.556933     1000   0.63773455    5.6077429 
  358000    21.702171     1000   0.62768446    5.6234508 
  359000    21.848238     1000   0.62782443    5.6391588 
  360000    21.995649     1000   0.63296965    5.6548668 
  361000    22.141974     1000   0.64609127    5.6705747 
  362000     22.28722     1000   0.64496969    5.6862827 
  363000    22.432165     1000   0.64796771    5.7019907 
  364000    22.580164     1000   0.63477843    5.7176986 
  365000     22.72595     1000   0.63807404    5.7334066 
  366000    22.873509     1000   0.63519528    5.7491146 
  367000    23.019727     1000   0.62284843    5.7648225 
  368000    23.165612     1000    0.6210015    5.7805305 
  369000    23.312471     1000   0.61008001    5.7962384 
  370000    23.459516     1000   0.60561476    5.8119464 
  371000    23.602632     1000   0.60908766    5.8276544 
  372000      23.7461     1000   0.59996297    5.8433623 
  373000    23.888996     1000   0.60393591    5.8590703 
  374000    24.033416     1000   0.60604606    5.8747783 
  375000    24.178761     1000   0.60224804    5.8904862 
  376000    24.324701     1000   0.60514608    5.9061942 
  377000     24.47052     1000   0.61499596    5.9219022 
  378000    24.617328     1000   0.63308472    5.9376101 
  379000    24.762164     1000   0.64431365    5.9533181 
  380000    24.907241     1000   0.65482951     5.969026 
  381000    25.050183     1000   0.66980406     5.984734 
  382000    25.193769     1000   0.67436795     6.000442 
  383000    25.337641     1000   0.68466959    6.0161499 
  384000    25.481081     1000   0.68502372    6.0318579 
  385000    25.622825     1000   0.68223872    6.0475659 
  386000    25.762268     1000   0.67400889    6.0632738 
  387000     25.90033     1000   0.66562946    6.0789818 
  388000    26.035881     1000   0.66546995    6.0946897 
  389000    26.170785     1000   0.65655679    6.1103977 
  390000    26.304879     1000    0.6495341    6.1261057 
  391000    26.438672     1000   0.64732076    6.1418136 
  392000    26.573085     1000   0.64791698    6.1575216 
  393000    26.707088     1000   0.64169346    6.1732296 
  394000    26.840507     1000   0.64378036    6.1889375 
  395000    26.975406     1000   0.65062169    6.2046455 
  396000    27.110494     1000   0.65545089    6.2203535 
  397000    27.242987     1000   0.65511578    6.2360614 
  398000    27.375442     1000   0.65968764    6.2517694 
  399000    27.508652     1000   0.65792015    6.2674773 
  400000     27.64266     1000   0.64876675    6.2831853 
Loop time of 27.6427 on 8 procs for 200000 steps with 1000 atoms

Performance: 29537.881 tau/day, 7235.187 timesteps/s
97.7% CPU use with 8 MPI tasks x no OpenMP threads

MPI task timing breakdown:
Section |  min time  |  avg time  |  max time  |%varavg| %total
---------------------------------------------------------------
Pair    | 0.62376    | 1.2159     | 1.8769     |  50.4 |  4.40
Neigh   | 0.009989   | 0.013471   | 0.016903   |   2.4 |  0.05
Comm    | 12.358     | 13.142     | 13.874     |  18.4 | 47.54
Output  | 0.0039023  | 0.0052526  | 0.0065205  |   1.4 |  0.02
Modify  | 9.0694     | 10.688     | 12.373     |  40.6 | 38.66
Other   |            | 2.578      |            |       |  9.33

Nlocal:    125 ave 139 max 118 min
Histogram: 2 1 2 1 1 0 0 0 0 1
Nghost:    243.875 ave 334 max 170 min
Histogram: 2 0 1 1 0 1 1 0 1 1
Neighs:    619.625 ave 797 max 446 min
Histogram: 2 1 0 0 1 0 0 2 1 1

Total # of neighbors = 4957
Ave neighs/atom = 4.957
Neighbor list builds = 157
Dangerous builds = 0
Total wall time: 0:00:43
