LAMMPS (30 Oct 2019)
variable	name string mixer

thermo_modify	flush yes
variable	seed equal 14314

###############################################
# Particle parameters
################################################

variable	rlo equal 0.3
variable	rhi equal 0.6
variable	dlo equal 2.0*${rlo}
variable	dlo equal 2.0*0.3
variable	dhi equal 2.0*${rhi}
variable	dhi equal 2.0*0.6
variable 	skin equal ${rhi}
variable 	skin equal 0.6

variable	coeffRes equal 0.1
variable	coeffFric equal 0.5

variable	kn equal 10^5
variable	kt equal 0.2*${kn}
variable	kt equal 0.2*100000

variable	gravity equal 1.0
variable	density equal 1.0

variable	min_mass equal ${density}*4.0/3.0*PI*${rlo}*${rlo}*${rlo}
variable	min_mass equal 1*4.0/3.0*PI*${rlo}*${rlo}*${rlo}
variable	min_mass equal 1*4.0/3.0*PI*0.3*${rlo}*${rlo}
variable	min_mass equal 1*4.0/3.0*PI*0.3*0.3*${rlo}
variable	min_mass equal 1*4.0/3.0*PI*0.3*0.3*0.3
variable	a equal (-2.0*log(${coeffRes})/PI)^2
variable	a equal (-2.0*log(0.1)/PI)^2
variable        gamma_n equal sqrt($a*2*${kn}/${min_mass}/(1+0.25*$a))
variable        gamma_n equal sqrt(0.405284734569351*2*${kn}/${min_mass}/(1+0.25*$a))
variable        gamma_n equal sqrt(0.405284734569351*2*100000/${min_mass}/(1+0.25*$a))
variable        gamma_n equal sqrt(0.405284734569351*2*100000/0.113097335529233/(1+0.25*$a))
variable        gamma_n equal sqrt(0.405284734569351*2*100000/0.113097335529233/(1+0.25*0.405284734569351))
variable        gamma_t equal ${gamma_n}*0.5
variable        gamma_t equal 806.699778405191*0.5

variable	tcol equal PI/sqrt(2*${kn}/${min_mass}-${gamma_n}/4.0)
variable	tcol equal PI/sqrt(2*100000/${min_mass}-${gamma_n}/4.0)
variable	tcol equal PI/sqrt(2*100000/0.113097335529233-${gamma_n}/4.0)
variable	tcol equal PI/sqrt(2*100000/0.113097335529233-806.699778405191/4.0)

variable	dt equal ${tcol}*0.02
variable	dt equal 0.00236257621510454*0.02
timestep	${dt}
timestep	4.72515243020908e-05

###############################################

variable	dumpfreq equal 1000
variable	logfreq equal 1000

newton 		on
atom_style	sphere

boundary	p p f

region		boxreg block 0 20 0 20 0 20
create_box	1 boxreg
Created orthogonal box = (0 0 0) to (20 20 20)
  2 by 2 by 2 MPI processor grid

pair_style	gran/hertz/history 		${kn} ${kt} ${gamma_n} ${gamma_t} ${coeffFric} 1
pair_style	gran/hertz/history 		100000 ${kt} ${gamma_n} ${gamma_t} ${coeffFric} 1
pair_style	gran/hertz/history 		100000 20000 ${gamma_n} ${gamma_t} ${coeffFric} 1
pair_style	gran/hertz/history 		100000 20000 806.699778405191 ${gamma_t} ${coeffFric} 1
pair_style	gran/hertz/history 		100000 20000 806.699778405191 403.349889202595 ${coeffFric} 1
pair_style	gran/hertz/history 		100000 20000 806.699778405191 403.349889202595 0.5 1
pair_coeff	* *

neighbor        ${skin} bin
neighbor        0.6 bin
thermo 		${logfreq}
thermo 		1000

comm_style	brick
comm_modify 	mode multi group all vel yes
balance		1.1 shift xyz 20 1.1
Neighbor list info ...
  update every 1 steps, delay 10 steps, check yes
  max neighbors/atom: 2000, page size: 100000
  master list distance cutoff = 0
  ghost atom cutoff = 0
  binsize = 20, bins = 1 1 1
  1 neighbor lists, perpetual/occasional/extra = 1 0 0
  (1) pair gran/hertz/history, perpetual
      attributes: half, newton on, size, history
      pair build: half/size/bin/newton
      stencil: half/bin/3d/newton
      bin: standard
WARNING: Communication cutoff is 0.0. No ghost atoms will be generated. Atoms may get lost. (src/comm_brick.cpp:166)
fix		bal all balance 10000 1.1 shift xyz 20 1.01

####################### Options specific to pouring #########################

region	     	insreg cylinder z 10 10 8 10 18 side in units box
region	    	cylreg cylinder z 10 10 10 0 20 side in units box

variable	theta equal (step/400000)*2*PI

region          b1 block 2 18 9 11 0 4 side out                 rotate v_theta 10 10 0 0 0 1 units box
region          b2 block 9 11 2 18 0 3.99999 side out                 rotate v_theta 10 10 0 0 0 1 units box

region		mixer intersect 3 cylreg b1 b2 side in

fix		grav all gravity ${gravity} vector 0 0 -1
fix		grav all gravity 1 vector 0 0 -1
fix		1 all nve/sphere

fix		mixwall all wall/gran/region hertz/history                 ${kn} ${kt} ${gamma_n} ${gamma_t} ${coeffFric} 1 region mixer
fix		mixwall all wall/gran/region hertz/history                 100000 ${kt} ${gamma_n} ${gamma_t} ${coeffFric} 1 region mixer
fix		mixwall all wall/gran/region hertz/history                 100000 20000 ${gamma_n} ${gamma_t} ${coeffFric} 1 region mixer
fix		mixwall all wall/gran/region hertz/history                 100000 20000 806.699778405191 ${gamma_t} ${coeffFric} 1 region mixer
fix		mixwall all wall/gran/region hertz/history                 100000 20000 806.699778405191 403.349889202595 ${coeffFric} 1 region mixer
fix		mixwall all wall/gran/region hertz/history                 100000 20000 806.699778405191 403.349889202595 0.5 1 region mixer

fix		ins all pour 1000 1 42424 region insreg 		diam range ${dlo} ${dhi} dens ${density} ${density}
fix		ins all pour 1000 1 42424 region insreg 		diam range 0.6 ${dhi} dens ${density} ${density}
fix		ins all pour 1000 1 42424 region insreg 		diam range 0.6 1.2 dens ${density} ${density}
fix		ins all pour 1000 1 42424 region insreg 		diam range 0.6 1.2 dens 1 ${density}
fix		ins all pour 1000 1 42424 region insreg 		diam range 0.6 1.2 dens 1 1
Particle insertion: 444 every 84653 steps, 1000 by step 169307

#dump		1 all custom ${dumpfreq} ${name}_pour.dump #		id type mass diameter x y z

#dump		2 all image 4000 image.*.jpg type type #		axes yes 0.8 0.02 view 60 -30 zoom 1.5 #                box no 0.0 axes no 0.0 0.0
#dump_modify	2 pad 6

thermo_style	custom step cpu atoms ke v_theta
WARNING: New thermo_style command, previous thermo_modify settings will be lost (src/output.cpp:708)
thermo_modify	flush yes lost warn

run		200000
Per MPI rank memory allocation (min/avg/max) = 5.807 | 5.807 | 5.807 Mbytes
Step CPU Atoms KinEng v_theta 
       0            0        0           -0            0 
    1000   0.10703397      444           -0  0.015707963 
    2000    0.2039547      444           -0  0.031415927 
    3000   0.30449605      444           -0   0.04712389 
    4000   0.38662815      444           -0  0.062831853 
    5000     0.453269      444           -0  0.078539816 
    6000   0.51923728      444           -0   0.09424778 
    7000   0.58406997      444           -0   0.10995574 
    8000   0.64835691      444           -0   0.12566371 
    9000   0.71322918      444           -0   0.14137167 
   10000   0.77837777      444           -0   0.15707963 
   11000   0.82491994      444           -0    0.1727876 
   12000   0.87207079      444           -0   0.18849556 
   13000     0.919559      444           -0   0.20420352 
   14000   0.96773458      444           -0   0.21991149 
   15000    1.0169487      444           -0   0.23561945 
   16000    1.0663111      444           -0   0.25132741 
   17000    1.1156914      444           -0   0.26703538 
   18000    1.1661692      444           -0   0.28274334 
   19000    1.2171559      444           -0    0.2984513 
   20000    1.2683976      444           -0   0.31415927 
   21000    1.3141434      444           -0   0.32986723 
   22000    1.3602664      444           -0   0.34557519 
   23000    1.4068449      444           -0   0.36128316 
   24000    1.4539254      444           -0   0.37699112 
   25000    1.5015953      444           -0   0.39269908 
   26000    1.5499086      444           -0   0.40840704 
   27000    1.5989194      444           -0   0.42411501 
   28000    1.6483045      444           -0   0.43982297 
   29000    1.6981125      444           -0   0.45553093 
   30000    1.7490613      444           -0    0.4712389 
   31000    1.7941616      444           -0   0.48694686 
   32000    1.8393698      444           -0   0.50265482 
   33000     1.884841      444           -0   0.51836279 
   34000    1.9310112      444           -0   0.53407075 
   35000    1.9775195      444           -0   0.54977871 
   36000    2.0245886      444           -0   0.56548668 
   37000    2.0720432      444           -0   0.58119464 
   38000    2.1208067      444           -0    0.5969026 
   39000    2.1706378      444           -0   0.61261057 
   40000    2.2207589      444           -0   0.62831853 
   41000    2.2666872      444           -0   0.64402649 
   42000    2.3132296      444           -0   0.65973446 
   43000    2.3608124      444           -0   0.67544242 
   44000    2.4092107      444           -0   0.69115038 
   45000    2.4591713      444           -0   0.70685835 
   46000    2.5089717      444           -0   0.72256631 
   47000    2.5588057      444           -0   0.73827427 
   48000    2.6100161      444           -0   0.75398224 
   49000    2.6616445      444           -0    0.7696902 
   50000    2.7131634      444           -0   0.78539816 
   51000    2.7610669      444           -0   0.80110613 
   52000    2.8064322      444           -0   0.81681409 
   53000    2.8516746      444           -0   0.83252205 
   54000    2.9013195      444           -0   0.84823002 
   55000    2.9481134      444           -0   0.86393798 
   56000    2.9963562      444           -0   0.87964594 
   57000    3.0451074      444           -0   0.89535391 
   58000    3.0940206      444           -0   0.91106187 
   59000    3.1439676      444           -0   0.92676983 
   60000    3.1955676      444           -0    0.9424778 
   61000    3.2440801      444           -0   0.95818576 
   62000    3.2934544      444           -0   0.97389372 
   63000    3.3443754      444           -0   0.98960169 
   64000     3.395767      444           -0    1.0053096 
   65000    3.4491832      444           -0    1.0210176 
   66000    3.5025821      444           -0    1.0367256 
   67000    3.5559692      444           -0    1.0524335 
   68000    3.6110625      444           -0    1.0681415 
   69000    3.6667516      444           -0    1.0838495 
   70000    3.7230051      444           -0    1.0995574 
   71000    3.7739744      444           -0    1.1152654 
   72000    3.8275006      444           -0    1.1309734 
   73000     3.881875      444           -0    1.1466813 
   74000    3.9364913      444           -0    1.1623893 
   75000    3.9914248      444           -0    1.1780972 
   76000    4.0463288      444           -0    1.1938052 
   77000    4.1010795      444           -0    1.2095132 
   78000    4.1561315      444           -0    1.2252211 
   79000    4.2124383      444           -0    1.2409291 
   80000    4.2688727      444           -0    1.2566371 
   81000    4.3216467      444           -0     1.272345 
   82000    4.3747742      444           -0     1.288053 
   83000    4.4285295      444           -0     1.303761 
   84000    4.4828656      444           -0    1.3194689 
   85000        4.563      888           -0    1.3351769 
   86000    4.6611714      888           -0    1.3508848 
   87000    4.7598248      888           -0    1.3665928 
   88000    4.8579249      888           -0    1.3823008 
   89000    4.9552608      888           -0    1.3980087 
   90000    5.0525794      888           -0    1.4137167 
   91000    5.1273179      888           -0    1.4294247 
   92000    5.2024932      888           -0    1.4451326 
   93000    5.2787032      888           -0    1.4608406 
   94000    5.3553591      888           -0    1.4765485 
   95000     5.432497      888           -0    1.4922565 
   96000     5.509855      888           -0    1.5079645 
   97000    5.5872886      888           -0    1.5236724 
   98000    5.6658132      888           -0    1.5393804 
   99000    5.7450559      888           -0    1.5550884 
  100000    5.8249462      888           -0    1.5707963 
  101000     5.901222      888           -0    1.5865043 
  102000    5.9767187      888           -0    1.6022123 
  103000    6.0526986      888           -0    1.6179202 
  104000    6.1285641      888           -0    1.6336282 
  105000    6.2053397      888           -0    1.6493361 
  106000    6.2823176      888           -0    1.6650441 
  107000    6.3594968      888           -0    1.6807521 
  108000    6.4372554      888           -0      1.69646 
  109000    6.5185852      888           -0     1.712168 
  110000    6.6006227      888           -0     1.727876 
  111000     6.680155      888           -0    1.7435839 
  112000    6.7594583      888           -0    1.7592919 
  113000    6.8394279      888           -0    1.7749998 
  114000    6.9207413      888           -0    1.7907078 
  115000    7.0017281      888           -0    1.8064158 
  116000    7.0830171      888           -0    1.8221237 
  117000    7.1642249      888           -0    1.8378317 
  118000    7.2445049      888           -0    1.8535397 
  119000    7.3255601      888           -0    1.8692476 
  120000    7.4065616      888           -0    1.8849556 
  121000    7.4847133      888           -0    1.9006636 
  122000    7.5623047      888           -0    1.9163715 
  123000     7.641391      888           -0    1.9320795 
  124000    7.7216024      888           -0    1.9477874 
  125000    7.8021212      888           -0    1.9634954 
  126000    7.8825405      888           -0    1.9792034 
  127000    7.9636207      888           -0    1.9949113 
  128000    8.0455017      888           -0    2.0106193 
  129000    8.1280663      888           -0    2.0263273 
  130000    8.2110577      888           -0    2.0420352 
  131000    8.2944002      888           -0    2.0577432 
  132000    8.3754416      888           -0    2.0734512 
  133000    8.4562464      888           -0    2.0891591 
  134000    8.5394218      888           -0    2.1048671 
  135000    8.6231635      888           -0     2.120575 
  136000     8.708375      888           -0     2.136283 
  137000    8.7938628      888           -0     2.151991 
  138000     8.879792      888           -0    2.1676989 
  139000    8.9661577      888           -0    2.1834069 
  140000     9.052712      888           -0    2.1991149 
  141000    9.1389008      888           -0    2.2148228 
  142000     9.224369      888           -0    2.2305308 
  143000    9.3103411      888           -0    2.2462387 
  144000    9.3960903      888           -0    2.2619467 
  145000    9.4825282      888           -0    2.2776547 
  146000    9.5717256      888           -0    2.2933626 
  147000    9.6613004      888           -0    2.3090706 
  148000    9.7509117      888           -0    2.3247786 
  149000    9.8425901      888           -0    2.3404865 
  150000    9.9359179      888           -0    2.3561945 
  151000    10.026284      888           -0    2.3719025 
  152000    10.119068      888           -0    2.3876104 
  153000    10.210327      888           -0    2.4033184 
  154000    10.300039      888           -0    2.4190263 
  155000    10.394312      888           -0    2.4347343 
  156000    10.494003      888           -0    2.4504423 
  157000    10.593002      888           -0    2.4661502 
  158000    10.691684      888           -0    2.4818582 
  159000    10.791237      888           -0    2.4975662 
  160000    10.891993      888           -0    2.5132741 
  161000    10.992405      888           -0    2.5289821 
  162000      11.0915      888           -0      2.54469 
  163000    11.190468      888           -0     2.560398 
  164000    11.289419      888           -0     2.576106 
  165000    11.389638      888           -0    2.5918139 
  166000    11.491845      888           -0    2.6075219 
  167000    11.596347      888           -0    2.6232299 
  168000    11.701774      888           -0    2.6389378 
  169000    11.806364      888           -0    2.6546458 
  170000    11.913748     1000           -0    2.6703538 
  171000    12.020972     1000           -0    2.6860617 
  172000    12.131271     1000           -0    2.7017697 
  173000    12.241679     1000           -0    2.7174776 
  174000    12.352041     1000           -0    2.7331856 
  175000    12.463365     1000           -0    2.7488936 
  176000    12.575377     1000           -0    2.7646015 
  177000    12.688462     1000           -0    2.7803095 
  178000    12.802239     1000           -0    2.7960175 
  179000    12.914717     1000           -0    2.8117254 
  180000    13.026362     1000           -0    2.8274334 
  181000    13.142504     1000           -0    2.8431414 
  182000    13.259546     1000           -0    2.8588493 
  183000    13.374158     1000           -0    2.8745573 
  184000    13.489063     1000           -0    2.8902652 
  185000     13.60614     1000           -0    2.9059732 
  186000    13.723589     1000           -0    2.9216812 
  187000    13.841582     1000           -0    2.9373891 
  188000    13.959414     1000           -0    2.9530971 
  189000    14.078512     1000           -0    2.9688051 
  190000    14.197897     1000           -0     2.984513 
  191000    14.309897     1000           -0     3.000221 
  192000    14.423068     1000           -0    3.0159289 
  193000    14.533142     1000           -0    3.0316369 
  194000    14.639962     1000           -0    3.0473449 
  195000    14.747632     1000           -0    3.0630528 
  196000    14.854635     1000           -0    3.0787608 
  197000     14.96083     1000           -0    3.0944688 
  198000    15.070807     1000           -0    3.1101767 
  199000    15.178404     1000           -0    3.1258847 
  200000    15.287291     1000           -0    3.1415927 
Loop time of 15.2873 on 8 procs for 200000 steps with 1000 atoms

Performance: 53410.693 tau/day, 13082.738 timesteps/s
98.6% CPU use with 8 MPI tasks x no OpenMP threads

MPI task timing breakdown:
Section |  min time  |  avg time  |  max time  |%varavg| %total
---------------------------------------------------------------
Pair    | 0.39349    | 0.63671    | 0.90801    |  29.1 |  4.16
Neigh   | 0.0086792  | 0.010286   | 0.01231    |   1.4 |  0.07
Comm    | 4.0773     | 4.4949     | 4.9612     |  15.2 | 29.40
Output  | 0.0047398  | 0.0058253  | 0.0076537  |   1.1 |  0.04
Modify  | 6.7673     | 7.4185     | 8.1318     |  17.3 | 48.53
Other   |            | 2.721      |            |       | 17.80

Nlocal:    125 ave 137 max 115 min
Histogram: 2 0 1 0 2 0 1 1 0 1
Nghost:    192.625 ave 234 max 145 min
Histogram: 1 1 0 0 2 1 1 0 0 2
Neighs:    471.75 ave 747 max 223 min
Histogram: 3 1 0 0 0 0 0 1 1 2

Total # of neighbors = 3774
Ave neighs/atom = 3.774
Neighbor list builds = 210
Dangerous builds = 0
unfix 		ins
run		200000
Per MPI rank memory allocation (min/avg/max) = 11.84 | 11.84 | 11.85 Mbytes
Step CPU Atoms KinEng v_theta 
  200000            0     1000    1.0012739    3.1415927 
  201000    0.1070509     1000   0.99514788    3.1573006 
  202000   0.21397853     1000   0.97917449    3.1730086 
  203000    0.3215704     1000   0.97241344    3.1887165 
  204000   0.42809463     1000   0.96800166    3.2044245 
  205000   0.53473687     1000   0.96230238    3.2201325 
  206000   0.64216185     1000   0.94214701    3.2358404 
  207000   0.74895597     1000   0.94032527    3.2515484 
  208000   0.85613894     1000   0.94198861    3.2672564 
  209000   0.96682549     1000   0.93395126    3.2829643 
  210000    1.0752754     1000   0.92843691    3.2986723 
  211000    1.1795926     1000   0.91774844    3.3143802 
  212000      1.28527     1000   0.91337276    3.3300882 
  213000     1.392168     1000   0.90348392    3.3457962 
  214000    1.4995458     1000   0.90654123    3.3615041 
  215000    1.6097505     1000   0.91372993    3.3772121 
  216000    1.7187085     1000   0.92541006    3.3929201 
  217000    1.8277457     1000   0.93995973     3.408628 
  218000    1.9376915     1000   0.94410643     3.424336 
  219000    2.0468512     1000   0.94557036     3.440044 
  220000    2.1546521     1000     0.943656    3.4557519 
  221000     2.261322     1000   0.93836065    3.4714599 
  222000    2.3686891     1000   0.91277819    3.4871678 
  223000    2.4761722     1000   0.90358517    3.5028758 
  224000    2.5848324     1000    0.9023909    3.5185838 
  225000    2.6929834     1000   0.88675517    3.5342917 
  226000    2.7995749     1000   0.88563369    3.5499997 
  227000    2.9069099     1000   0.88534567    3.5657077 
  228000    3.0123539     1000   0.87887037    3.5814156 
  229000    3.1197004     1000   0.87671605    3.5971236 
  230000    3.2280531     1000   0.88154861    3.6128316 
  231000    3.3410063     1000   0.89486866    3.6285395 
  232000    3.4543617     1000   0.89773255    3.6442475 
  233000     3.568074     1000   0.88993947    3.6599554 
  234000     3.679867     1000   0.88656396    3.6756634 
  235000    3.7909679     1000    0.9002441    3.6913714 
  236000    3.9024358     1000   0.89338532    3.7070793 
  237000    4.0152884     1000   0.88812699    3.7227873 
  238000    4.1282871     1000   0.87762575    3.7384953 
  239000     4.242635     1000   0.87259069    3.7542032 
  240000    4.3583176     1000   0.87539278    3.7699112 
  241000    4.4769611     1000   0.88826623    3.7856191 
  242000    4.6028075     1000   0.87611885    3.8013271 
  243000    4.7206354     1000   0.87292832    3.8170351 
  244000    4.8350613     1000   0.86993115     3.832743 
  245000    4.9499497     1000   0.85703563     3.848451 
  246000    5.0644853     1000   0.85751635     3.864159 
  247000    5.1789627     1000   0.84645062    3.8798669 
  248000    5.2948713     1000    0.8308598    3.8955749 
  249000    5.4122133     1000   0.81287862    3.9112829 
  250000    5.5319412     1000   0.79680824    3.9269908 
  251000    5.6508904     1000   0.79087498    3.9426988 
  252000    5.7712955     1000    0.7964482    3.9584067 
  253000    5.8924303     1000   0.78514593    3.9741147 
  254000    6.0137265     1000   0.77807434    3.9898227 
  255000    6.1350706     1000   0.76813765    4.0055306 
  256000    6.2563245     1000   0.76318434    4.0212386 
  257000     6.377593     1000   0.77283585    4.0369466 
  258000    6.5001867     1000   0.76602194    4.0526545 
  259000    6.6252458     1000   0.76032706    4.0683625 
  260000    6.7516353     1000   0.75980522    4.0840704 
  261000    6.8790021     1000   0.76821461    4.0997784 
  262000    7.0064363     1000   0.77089474    4.1154864 
  263000    7.1315122     1000   0.77621586    4.1311943 
  264000    7.2554486     1000   0.78210205    4.1469023 
  265000     7.380796     1000   0.79604225    4.1626103 
  266000    7.5061619     1000   0.79448603    4.1783182 
  267000    7.6299362     1000   0.79314952    4.1940262 
  268000    7.7538257     1000   0.78310472    4.2097342 
  269000    7.8775105     1000   0.76662854    4.2254421 
  270000    8.0011036     1000   0.75610077    4.2411501 
  271000    8.1272752     1000   0.75049534     4.256858 
  272000    8.2526319     1000   0.74129564     4.272566 
  273000    8.3775833     1000   0.73883852     4.288274 
  274000    8.5027351     1000   0.73617397    4.3039819 
  275000     8.628428     1000    0.7363154    4.3196899 
  276000    8.7545083     1000   0.72877216    4.3353979 
  277000    8.8812509     1000   0.72452457    4.3511058 
  278000    9.0076435     1000   0.72381998    4.3668138 
  279000    9.1358843     1000   0.71084148    4.3825218 
  280000    9.2615635     1000    0.7110527    4.3982297 
  281000    9.3862832     1000   0.72225732    4.4139377 
  282000    9.5102432     1000   0.72653873    4.4296456 
  283000    9.6350837     1000   0.70503777    4.4453536 
  284000    9.7601912     1000   0.68991231    4.4610616 
  285000    9.8843489     1000   0.68873735    4.4767695 
  286000    10.008086     1000   0.68558058    4.4924775 
  287000    10.130905     1000   0.68713221    4.5081855 
  288000    10.254933     1000   0.68021747    4.5238934 
  289000    10.379136     1000    0.6824667    4.5396014 
  290000    10.504406     1000   0.68743614    4.5553093 
  291000    10.627505     1000   0.69139295    4.5710173 
  292000    10.747979     1000   0.70033156    4.5867253 
  293000    10.864544     1000    0.7093408    4.6024332 
  294000    10.982195     1000    0.7011193    4.6181412 
  295000    11.100349     1000   0.69109012    4.6338492 
  296000    11.216517     1000   0.68878149    4.6495571 
  297000    11.332874     1000   0.68904789    4.6652651 
  298000     11.44822     1000   0.68500726    4.6809731 
  299000    11.567928     1000   0.68202503     4.696681 
  300000    11.685991     1000   0.68432055     4.712389 
  301000    11.802145     1000   0.68496565    4.7280969 
  302000    11.917509     1000   0.68146874    4.7438049 
  303000     12.03104     1000   0.68295015    4.7595129 
  304000    12.143901     1000   0.68482935    4.7752208 
  305000    12.256725     1000   0.69794596    4.7909288 
  306000    12.370468     1000   0.69449888    4.8066368 
  307000     12.48505     1000   0.69652015    4.8223447 
  308000    12.597392     1000   0.68312181    4.8380527 
  309000    12.711293     1000   0.68047022    4.8537606 
  310000    12.826232     1000   0.67036339    4.8694686 
  311000    12.941219     1000   0.66981108    4.8851766 
  312000    13.057079     1000   0.67233008    4.9008845 
  313000    13.174084     1000   0.66959964    4.9165925 
  314000    13.294756     1000   0.65483611    4.9323005 
  315000    13.410997     1000   0.65413422    4.9480084 
  316000     13.52655     1000   0.66138185    4.9637164 
  317000    13.643003     1000   0.67354119    4.9794244 
  318000    13.758278     1000   0.68268792    4.9951323 
  319000    13.877218     1000   0.70192914    5.0108403 
  320000    13.993587     1000   0.71749873    5.0265482 
  321000    14.111095     1000   0.72026098    5.0422562 
  322000    14.229932     1000   0.71123023    5.0579642 
  323000    14.347091     1000   0.71187571    5.0736721 
  324000    14.463419     1000   0.70804246    5.0893801 
  325000    14.579452     1000    0.6912582    5.1050881 
  326000    14.695078     1000   0.67706055     5.120796 
  327000    14.810908     1000   0.67260998     5.136504 
  328000    14.926507     1000   0.67146327     5.152212 
  329000    15.043563     1000   0.67057911    5.1679199 
  330000     15.16083     1000   0.66692001    5.1836279 
  331000    15.280289     1000   0.66541028    5.1993358 
  332000    15.399503     1000   0.66267143    5.2150438 
  333000    15.519794     1000   0.66137242    5.2307518 
  334000     15.64369     1000   0.66329175    5.2464597 
  335000    15.764616     1000   0.67292667    5.2621677 
  336000    15.885538     1000   0.67851847    5.2778757 
  337000    16.005962     1000   0.68174961    5.2935836 
  338000    16.129041     1000   0.67125722    5.3092916 
  339000    16.251595     1000   0.67536975    5.3249995 
  340000    16.373515     1000      0.67621    5.3407075 
  341000    16.496358     1000     0.672121    5.3564155 
  342000    16.618095     1000   0.67610532    5.3721234 
  343000    16.740854     1000   0.67587713    5.3878314 
  344000    16.865327     1000    0.6682719    5.4035394 
  345000    16.988771     1000   0.66328736    5.4192473 
  346000    17.112365     1000   0.65529453    5.4349553 
  347000    17.235278     1000   0.64528568    5.4506633 
  348000    17.359396     1000   0.64437248    5.4663712 
  349000    17.484918     1000   0.64751403    5.4820792 
  350000    17.609191     1000   0.65111954    5.4977871 
  351000     17.73571     1000   0.65808274    5.5134951 
  352000    17.864861     1000   0.67725429    5.5292031 
  353000    17.994996     1000   0.69934866     5.544911 
  354000    18.124364     1000   0.69834751     5.560619 
  355000    18.252862     1000    0.6990092     5.576327 
  356000     18.38227     1000   0.70793028    5.5920349 
  357000    18.510815     1000   0.70682392    5.6077429 
  358000    18.638991     1000   0.70636376    5.6234508 
  359000    18.767205     1000    0.7023208    5.6391588 
  360000    18.899962     1000   0.70715889    5.6548668 
  361000    19.031308     1000   0.71400416    5.6705747 
  362000    19.161433     1000   0.72149016    5.6862827 
  363000    19.289362     1000   0.71635659    5.7019907 
  364000    19.417376     1000   0.71201474    5.7176986 
  365000    19.544915     1000   0.70643476    5.7334066 
  366000    19.674444     1000   0.70371152    5.7491146 
  367000    19.803128     1000   0.69687818    5.7648225 
  368000    19.930714     1000   0.68759659    5.7805305 
  369000    20.059963     1000   0.68108381    5.7962384 
  370000    20.190857     1000   0.67825239    5.8119464 
  371000    20.316845     1000   0.67842589    5.8276544 
  372000    20.443141     1000   0.67967768    5.8433623 
  373000    20.567473     1000   0.69182417    5.8590703 
  374000    20.692626     1000   0.69619456    5.8747783 
  375000    20.818089     1000   0.70053539    5.8904862 
  376000    20.948211     1000   0.69847928    5.9061942 
  377000    21.074361     1000   0.69424819    5.9219022 
  378000    21.200073     1000   0.69722234    5.9376101 
  379000    21.324033     1000   0.69855068    5.9533181 
  380000    21.448795     1000   0.69294133     5.969026 
  381000    21.572994     1000   0.67977117     5.984734 
  382000     21.69671     1000   0.68823137     6.000442 
  383000    21.820373     1000   0.69628962    6.0161499 
  384000    21.944383     1000   0.70986118    6.0318579 
  385000    22.068159     1000   0.71121112    6.0475659 
  386000    22.191074     1000   0.71747669    6.0632738 
  387000     22.31471     1000   0.72872139    6.0789818 
  388000    22.437242     1000   0.73711144    6.0946897 
  389000    22.562125     1000   0.72953205    6.1103977 
  390000     22.68282     1000   0.71717046    6.1261057 
  391000    22.801694     1000   0.71518131    6.1418136 
  392000     22.91906     1000   0.70929774    6.1575216 
  393000    23.037091     1000   0.70605703    6.1732296 
  394000    23.152952     1000   0.69812954    6.1889375 
  395000    23.268979     1000   0.69904396    6.2046455 
  396000    23.384401     1000   0.71238629    6.2203535 
  397000    23.500728     1000   0.70548494    6.2360614 
  398000     23.61579     1000   0.71398173    6.2517694 
  399000    23.732263     1000   0.71030869    6.2674773 
  400000    23.848391     1000   0.70765797    6.2831853 
Loop time of 23.8484 on 8 procs for 200000 steps with 1000 atoms

Performance: 34237.325 tau/day, 8386.298 timesteps/s
98.7% CPU use with 8 MPI tasks x no OpenMP threads

MPI task timing breakdown:
Section |  min time  |  avg time  |  max time  |%varavg| %total
---------------------------------------------------------------
Pair    | 1.0548     | 1.8649     | 2.6193     |  53.1 |  7.82
Neigh   | 0.010577   | 0.013284   | 0.015797   |   1.8 |  0.06
Comm    | 6.6955     | 7.8914     | 9.0503     |  35.6 | 33.09
Output  | 0.0044768  | 0.0058324  | 0.0077367  |   1.3 |  0.02
Modify  | 10.1       | 11.433     | 12.705     |  27.3 | 47.94
Other   |            | 2.64       |            |       | 11.07

Nlocal:    125 ave 133 max 108 min
Histogram: 1 0 0 0 1 0 1 1 2 2
Nghost:    239.625 ave 303 max 184 min
Histogram: 3 1 0 0 0 0 1 0 1 2
Neighs:    632.75 ave 805 max 451 min
Histogram: 1 2 1 0 0 0 1 0 0 3

Total # of neighbors = 5062
Ave neighs/atom = 5.062
Neighbor list builds = 155
Dangerous builds = 0
Total wall time: 0:00:39
