LAMMPS (8 Feb 2023)
# pouring spheres into container box

units		lj
atom_style      sphere
boundary        f f f
dimension	3
comm_modify     vel yes

region          box block -10 10 -10 10 -10 10 units box
create_box      2 box
Created orthogonal box = (-10 -10 -10) to (10 10 10)
  2 by 2 by 2 MPI processor grid

pair_style	hybrid gran/hooke 4000.0 NULL 100.0 NULL 0.5 1
pair_coeff	* * gran/hooke

region          container block -6 6 -6 6 -6 6 units box
fix		container all wall/gran/region hooke/history 		4000.0 NULL 100.0 NULL 0.5 1 region container

neighbor	0.3 bin
neigh_modify	delay 0 every 1 check yes

fix             2 all nve/sphere
fix		3 all gravity 1.0 vector 0 0 -1

region          slab block -2 2 -2 2 -2 2 units box
fix             ins all pour 100 2 4767548 vol 0.4 10 	        diam one 1.0 region slab ignore
Particle insertion: 48 every 566 steps, 100 by step 1133

timestep	0.005

compute         1 all temp
compute_modify  1 dynamic/dof yes

compute         2 all temp/sphere
compute_modify  2 dynamic/dof yes

thermo		100
thermo_style	custom step atoms temp c_1 c_2 press
thermo_modify   lost ignore
compute_modify  thermo_temp dynamic/dof yes

#dump		2 all image 100 image.*.jpg type type #		zoom 1.4 adiam 1.0 box no 0.0 axes yes 0.9 0.03
#dump_modify	2 pad 5

run	        5000
Generated 0 of 1 mixed pair_coeff terms from geometric mixing rule
Neighbor list info ...
  update: every = 1 steps, delay = 0 steps, check = yes
  max neighbors/atom: 2000, page size: 100000
  master list distance cutoff = 1.3
  ghost atom cutoff = 1.3
  binsize = 0.65, bins = 31 31 31
  1 neighbor lists, perpetual/occasional/extra = 1 0 0
  (1) pair gran/hooke, perpetual
      attributes: half, newton on, size
      pair build: half/size/bin/newton
      stencil: half/bin/3d
      bin: standard
Per MPI rank memory allocation (min/avg/max) = 0.4669 | 0.4669 | 0.4669 Mbytes
   Step        Atoms         Temp           c_1            c_2           Press     
         0           0   0              0              0              0            
WARNING: Less insertions than requested (src/GRANULAR/fix_pour.cpp:681)
       100          30   0.803783       0.803783       0.39507978     0.0029137134 
       200          30   1.1967995      1.1967995      0.5882574      0.0043383984 
       300          30   1.2814686      1.2814686      0.62987441     0.0046453238 
       400          30   0.82331082     0.82331082     0.41173176     0.0029845017 
       500          30   0.7708462      0.7708462      0.38777784     0.0043831147 
WARNING: Less insertions than requested (src/GRANULAR/fix_pour.cpp:681)
       600          64   0.51564897     0.51564897     0.26631577     0.0040059368 
       700          64   0.57239348     0.57239348     0.29566901     0.0045075987 
       800          64   0.61837087     0.61837087     0.32195387     0.0048123564 
       900          64   0.53061888     0.53061888     0.28564763     0.0055906552 
      1000          64   0.496299       0.496299       0.26801572     0.0061169128 
      1100          64   0.46068308     0.46068308     0.24699057     0.0055717699 
WARNING: Less insertions than requested (src/GRANULAR/fix_pour.cpp:681)
      1200          99   0.39206225     0.39206225     0.21356546     0.0066294211 
      1300          99   0.38624966     0.38624966     0.21345854     0.0049051051 
      1400          99   0.35615284     0.35615284     0.19785725     0.0046170772 
      1500          99   0.31486693     0.31486693     0.17429055     0.0064903431 
      1600          99   0.26369001     0.26369001     0.15095266     0.0045226844 
      1700         100   0.19259232     0.19259232     0.11308105     0.0073622776 
      1800         100   0.13724967     0.13724967     0.08327677     0.0058136792 
      1900         100   0.077213104    0.077213104    0.053159838    0.0016510392 
      2000         100   0.06529122     0.06529122     0.043728291    0.0020446139 
      2100         100   0.057428969    0.057428969    0.037974098    0.0012542755 
      2200         100   0.059072736    0.059072736    0.037425333    0.00095623983
      2300         100   0.034249057    0.034249057    0.025474186    0.00070887631
      2400         100   0.020633171    0.020633171    0.016199836    0.0016400803 
      2500         100   0.015414038    0.015414038    0.01231765     0.0011395889 
      2600         100   0.012947156    0.012947156    0.0097209418   0.00024529035
      2700         100   0.009250336    0.009250336    0.0073382763   0.000478836  
      2800         100   0.007357047    0.007357047    0.0060418821   0.00021331448
      2900         100   0.0082409243   0.0082409243   0.0062988494   0.00029599659
      3000         100   0.0042221898   0.0042221898   0.0035219106   0.00030422762
      3100         100   0.0035446786   0.0035446786   0.0029510424   0.00012657001
      3200         100   0.0030518641   0.0030518641   0.0025697805   0.00083289816
      3300         100   0.0026738795   0.0026738795   0.0022711191   6.9475508e-05
      3400         100   0.0017158078   0.0017158078   0.0016105516   9.476725e-05 
      3500         100   0.0016864894   0.0016864894   0.0015050907   4.3025797e-05
      3600         100   0.0013284682   0.0013284682   0.0012798811   4.0823119e-05
      3700         100   0.0010985422   0.0010985422   0.0010776583   8.7171466e-05
      3800         100   0.0012020498   0.0012020498   0.0010646598   1.9383003e-05
      3900         100   0.00069687437  0.00069687437  0.00072884931  8.6238203e-06
      4000         100   0.00065640638  0.00065640638  0.00069359208  0.00010706967
      4100         100   0.00061657364  0.00061657364  0.00063842014  7.8895418e-05
      4200         100   0.00053088385  0.00053088385  0.00057281629  4.6681626e-05
      4300         100   0.00052577676  0.00052577676  0.00056839291  6.5032424e-06
      4400         100   0.00052452971  0.00052452971  0.00056740457  6.4910552e-06
      4500         100   0.00051933981  0.00051933981  0.00055894411  3.7284746e-05
      4600         100   0.00045903696  0.00045903696  0.00050046287  3.9063513e-05
      4700         100   0.00043845299  0.00043845299  0.00048618251  3.1683738e-05
      4800         100   0.00035851237  0.00035851237  0.00042420617  4.4365905e-06
      4900         100   0.00030736949  0.00030736949  0.00038412547  4.9109096e-06
      5000         100   0.0003049826   0.0003049826   0.00038103984  1.1403028e-05
Loop time of 0.112013 on 8 procs for 5000 steps with 100 atoms

Performance: 19283402.236 tau/day, 44637.505 timesteps/s, 4.464 Matom-step/s
99.0% CPU use with 8 MPI tasks x no OpenMP threads

MPI task timing breakdown:
Section |  min time  |  avg time  |  max time  |%varavg| %total
---------------------------------------------------------------
Pair    | 0.0014505  | 0.0028032  | 0.0051619  |   2.2 |  2.50
Neigh   | 0.0027386  | 0.0041896  | 0.0062966  |   1.6 |  3.74
Comm    | 0.023708   | 0.041073   | 0.060744   |   7.5 | 36.67
Output  | 0.0023385  | 0.0026832  | 0.0029551  |   0.5 |  2.40
Modify  | 0.0032704  | 0.011835   | 0.025995   |   7.8 | 10.57
Other   |            | 0.04943    |            |       | 44.13

Nlocal:           12.5 ave          27 max           0 min
Histogram: 4 0 0 0 0 0 0 1 0 3
Nghost:          4.125 ave          11 max           0 min
Histogram: 4 0 0 0 0 0 2 1 0 1
Neighs:          20.25 ave          48 max           0 min
Histogram: 4 0 0 0 0 1 0 0 1 2

Total # of neighbors = 162
Ave neighs/atom = 1.62
Neighbor list builds = 281
Dangerous builds = 0

region          container delete
variable        theta equal (step-5000)*(4.0*PI/5000)
region          container block -6 6 -6 6 -6 6 units box                 rotate v_theta 0 0 0 0 0 1
run	        5000
Generated 0 of 1 mixed pair_coeff terms from geometric mixing rule
WARNING: Region properties for region container changed between runs, resetting its motion (src/GRANULAR/fix_wall_gran_region.cpp:101)
Per MPI rank memory allocation (min/avg/max) = 5.592 | 5.654 | 5.717 Mbytes
   Step        Atoms         Temp           c_1            c_2           Press     
      5000         100   0.0003049826   0.0003049826   0.00038103984  1.1273889e-05
      5100         100   0.55271064     0.55271064     0.30369553     0.010077155  
      5200         100   0.62740134     0.62740134     0.34316113     0.009733663  
      5300         100   0.74641567     0.74641567     0.39704976     0.010835077  
      5400         100   0.79920391     0.79920391     0.42041772     0.013470722  
      5500         100   0.90026872     0.90026872     0.46775466     0.014322191  
      5600         100   0.97116496     0.97116496     0.49791759     0.016106291  
      5700         100   1.0158895      1.0158895      0.51720603     0.014130848  
      5800         100   1.0684753      1.0684753      0.54132668     0.016645136  
      5900         100   1.1016948      1.1016948      0.55555073     0.016619989  
      6000         100   1.1303062      1.1303062      0.56988367     0.019716416  
      6100         100   1.1397278      1.1397278      0.57522647     0.01842866   
      6200         100   1.1669251      1.1669251      0.58744092     0.019616614  
      6300         100   1.1961414      1.1961414      0.60098494     0.019326002  
      6400         100   1.2205989      1.2205989      0.61224916     0.019993212  
      6500         100   1.2281146      1.2281146      0.61581498     0.018784132  
      6600         100   1.2318585      1.2318585      0.61722797     0.019610902  
      6700         100   1.2389541      1.2389541      0.62053669     0.019988764  
      6800         100   1.2527542      1.2527542      0.62719388     0.019470851  
      6900         100   1.2598521      1.2598521      0.63102683     0.020907233  
      7000         100   1.2772543      1.2772543      0.64016994     0.021352278  
      7100         100   1.2934631      1.2934631      0.64755069     0.020845816  
      7200         100   1.3037772      1.3037772      0.652513       0.021532683  
      7300         100   1.3182784      1.3182784      0.6590069      0.021512795  
      7400         100   1.3222273      1.3222273      0.66100422     0.02159343   
      7500         100   1.3290078      1.3290078      0.66398041     0.021697843  
      7600         100   1.332268       1.332268       0.66597207     0.021831598  
      7700         100   1.3317101      1.3317101      0.66559178     0.021732357  
      7800         100   1.3287921      1.3287921      0.66377868     0.021633654  
      7900         100   1.3279575      1.3279575      0.66340879     0.021815849  
      8000         100   1.326111       1.326111       0.66214689     0.021823883  
      8100         100   1.3257901      1.3257901      0.66195088     0.021396773  
      8200         100   1.328219       1.328219       0.66315853     0.021597325  
      8300         100   1.3304936      1.3304936      0.66430131     0.021741284  
      8400         100   1.3313463      1.3313463      0.66482592     0.021718953  
      8500         100   1.3318272      1.3318272      0.66525469     0.021750709  
      8600         100   1.335983       1.335983       0.66701421     0.023184529  
      8700         100   1.3314216      1.3314216      0.66471505     0.021874663  
      8800         100   1.3315907      1.3315907      0.66481215     0.021976986  
      8900         100   1.3325944      1.3325944      0.66528788     0.021932598  
      9000         100   1.3331604      1.3331604      0.66555798     0.021842478  
      9100         100   1.3328413      1.3328413      0.66540877     0.022115237  
      9200         100   1.3325841      1.3325841      0.66528035     0.022329294  
      9300         100   1.332641       1.332641       0.66530464     0.022587393  
      9400         100   1.3326504      1.3326504      0.66530672     0.022554369  
      9500         100   1.3327993      1.3327993      0.66537938     0.022501651  
      9600         100   1.332781       1.332781       0.66536945     0.022544813  
      9700         100   1.3330285      1.3330285      0.66548932     0.022525747  
      9800         100   1.3331367      1.3331367      0.66554027     0.022521869  
      9900         100   1.3332264      1.3332264      0.66558265     0.022563686  
     10000         100   1.3330893      1.3330893      0.66551034     0.022464473  
Loop time of 0.204107 on 8 procs for 5000 steps with 100 atoms

Performance: 10582680.295 tau/day, 24496.945 timesteps/s, 2.450 Matom-step/s
99.7% CPU use with 8 MPI tasks x no OpenMP threads

MPI task timing breakdown:
Section |  min time  |  avg time  |  max time  |%varavg| %total
---------------------------------------------------------------
Pair    | 0.0014279  | 0.0071864  | 0.014429   |   6.5 |  3.52
Neigh   | 0.0050371  | 0.0078482  | 0.012441   |   2.8 |  3.85
Comm    | 0.011887   | 0.033347   | 0.057317   |  11.2 | 16.34
Output  | 0.0022637  | 0.0030874  | 0.003658   |   1.0 |  1.51
Modify  | 0.012361   | 0.044475   | 0.099302   |  15.2 | 21.79
Other   |            | 0.1082     |            |       | 52.99

Nlocal:           12.5 ave          29 max           0 min
Histogram: 4 0 0 0 0 0 1 0 1 2
Nghost:           3.25 ave           7 max           0 min
Histogram: 4 0 0 0 0 0 0 0 2 2
Neighs:         25.125 ave          65 max           0 min
Histogram: 4 0 0 0 1 0 0 0 2 1

Total # of neighbors = 201
Ave neighs/atom = 2.01
Neighbor list builds = 626
Dangerous builds = 0

region          container delete
region          container block -6 6 -6 6 -6 6 units box
run             5000
Generated 0 of 1 mixed pair_coeff terms from geometric mixing rule
Per MPI rank memory allocation (min/avg/max) = 5.592 | 5.654 | 5.717 Mbytes
   Step        Atoms         Temp           c_1            c_2           Press     
     10000         100   1.3330893      1.3330893      0.66551034     0.022457286  
     10100         100   0.23348767     0.23348767     0.1381853      0.0076267143 
     10200         100   0.12429161     0.12429161     0.086884614    0.0035900282 
     10300         100   0.075063902    0.075063902    0.058517984    0.0025190068 
     10400         100   0.055407795    0.055407795    0.046895181    0.00094787553
     10500         100   0.036016392    0.036016392    0.032327231    0.00055596218
     10600         100   0.024549626    0.024549626    0.021691889    0.00067709954
     10700         100   0.017547151    0.017547151    0.016603916    0.0012333119 
     10800         100   0.014061174    0.014061174    0.01365892     0.00041483939
     10900         100   0.010827553    0.010827553    0.010693306    0.0003638061 
     11000         100   0.0098495978   0.0098495978   0.0096693681   0.00021019596
     11100         100   0.0079577905   0.0079577905   0.0081953921   0.00012577001
     11200         100   0.0073803793   0.0073803793   0.0074966083   0.00011511073
     11300         100   0.0067727192   0.0067727192   0.0068777514   8.163896e-05 
     11400         100   0.0059695628   0.0059695628   0.0060504016   7.2074765e-05
     11500         100   0.005587008    0.005587008    0.0055148853   8.3132272e-05
     11600         100   0.0050035618   0.0050035618   0.0048347003   0.00010625019
     11700         100   0.0042098512   0.0042098512   0.004201235    5.5989897e-05
     11800         100   0.0039547889   0.0039547889   0.0039836596   4.9458981e-05
     11900         100   0.0037973953   0.0037973953   0.0038585129   0.00011966836
     12000         100   0.0035696147   0.0035696147   0.0035250163   4.4444602e-05
     12100         100   0.0034158258   0.0034158258   0.0033231388   6.4310835e-05
     12200         100   0.0030223072   0.0030223072   0.0029689365   0.00038138956
     12300         100   0.0027835895   0.0027835895   0.0027793448   4.4433453e-05
     12400         100   0.002710502    0.002710502    0.0026827453   3.3542462e-05
     12500         100   0.0026583829   0.0026583829   0.0026452461   3.3764518e-05
     12600         100   0.0026462179   0.0026462179   0.0026349866   8.0878438e-05
     12700         100   0.0025328725   0.0025328725   0.0025245863   1.5663693e-05
     12800         100   0.0023565292   0.0023565292   0.0023504265   8.5029042e-05
     12900         100   0.0023103236   0.0023103236   0.0023245317   2.8590255e-05
     13000         100   0.0022705994   0.0022705994   0.0022955901   0.00010410353
     13100         100   0.0021516841   0.0021516841   0.0021783039   2.5307813e-05
     13200         100   0.0020062197   0.0020062197   0.0019640772   8.6502237e-05
     13300         100   0.0018567488   0.0018567488   0.0017946023   5.1034545e-05
     13400         100   0.0016521686   0.0016521686   0.0016259431   0.00011996696
     13500         100   0.0015725149   0.0015725149   0.0015419801   1.9459871e-05
     13600         100   0.0015329066   0.0015329066   0.0015110548   1.8969719e-05
     13700         100   0.0014575736   0.0014575736   0.0014438786   0.0002176104 
     13800         100   0.0013580756   0.0013580756   0.0013599162   1.6806185e-05
     13900         100   0.0012627186   0.0012627186   0.0012829087   1.5626143e-05
     14000         100   0.0012462193   0.0012462193   0.0012678871   1.5421964e-05
     14100         100   0.0011693178   0.0011693178   0.0012115079   4.45696e-05  
     14200         100   0.0010649497   0.0010649497   0.0011356566   1.8159223e-05
     14300         100   0.0010521182   0.0010521182   0.0011191529   1.3019963e-05
     14400         100   0.00096363592  0.00096363592  0.0010385222   1.1924995e-05
     14500         100   0.00094315783  0.00094315783  0.0010163746   1.1671578e-05
     14600         100   0.0009387411   0.0009387411   0.0010088824   6.078066e-05 
     14700         100   0.00088495079  0.00088495079  0.00095477452  1.0951266e-05
     14800         100   0.00085884664  0.00085884664  0.00093552066  1.0511059e-05
     14900         100   0.00081458698  0.00081458698  0.00088234386  1.0080514e-05
     15000         100   0.00077015045  0.00077015045  0.00082058464  9.5306118e-06
Loop time of 0.0971267 on 8 procs for 5000 steps with 100 atoms

Performance: 22238995.504 tau/day, 51479.156 timesteps/s, 5.148 Matom-step/s
100.0% CPU use with 8 MPI tasks x no OpenMP threads

MPI task timing breakdown:
Section |  min time  |  avg time  |  max time  |%varavg| %total
---------------------------------------------------------------
Pair    | 0.0016702  | 0.0025568  | 0.0040269  |   1.5 |  2.63
Neigh   | 0.00069222 | 0.0010924  | 0.0015401  |   0.8 |  1.12
Comm    | 0.0037674  | 0.024101   | 0.046569   |  12.7 | 24.81
Output  | 0.0021255  | 0.0025442  | 0.0029392  |   0.7 |  2.62
Modify  | 0.0010846  | 0.011326   | 0.028561   |   9.8 | 11.66
Other   |            | 0.05551    |            |       | 57.15

Nlocal:           12.5 ave          28 max           0 min
Histogram: 4 0 0 0 0 0 0 0 2 2
Nghost:          6.625 ave          14 max           0 min
Histogram: 4 0 0 0 0 0 0 0 1 3
Neighs:           18.5 ave          43 max           0 min
Histogram: 4 0 0 0 0 0 0 2 0 2

Total # of neighbors = 148
Ave neighs/atom = 1.48
Neighbor list builds = 85
Dangerous builds = 0

region          container delete
variable        theta equal (step-15000)*(4.0*PI/5000)
region          container block -6 6 -6 6 -6 6 units box                 rotate v_theta 0 0 0 1 1 1
run	        5000
Generated 0 of 1 mixed pair_coeff terms from geometric mixing rule
Per MPI rank memory allocation (min/avg/max) = 5.592 | 5.654 | 5.717 Mbytes
   Step        Atoms         Temp           c_1            c_2           Press     
     15000         100   0.00077015045  0.00077015045  0.00082058464  9.5306118e-06
     15100         100   0.88129516     0.88129516     0.57813819     0.012811134  
     15200         100   0.98681808     0.98681808     0.64563613     0.014637802  
     15300         100   1.1820928      1.1820928      0.75972204     0.017494553  
     15400         100   1.392655       1.392655       0.89625052     0.025951032  
     15500         100   1.458107       1.458107       0.93403867     0.020234343  
     15600         100   1.7031093      1.7031093      1.0346341      0.02980579   
     15700         100   1.934231       1.934231       1.1366193      0.029444667  
     15800         100   2.0419476      2.0419476      1.1927025      0.027909316  
     15900         100   2.292495       2.292495       1.2882852      0.036883574  
     16000         100   2.3305874      2.3305874      1.3046723      0.031964214  
     16100         100   2.3162075      2.3162075      1.2752535      0.036434717  
     16200         100   2.5672849      2.5672849      1.4112482      0.034279831  
     16300         100   2.5359121      2.5359121      1.396514       0.033670807  
     16400         100   2.5479419      2.5479419      1.400993       0.034179982  
     16500         100   2.6643688      2.6643688      1.4529446      0.035743318  
     16600         100   2.8704314      2.8704314      1.5566263      0.036144301  
     16700         100   2.9856613      2.9856613      1.6169096      0.039328244  
     16800         100   3.1695448      3.1695448      1.7010611      0.039710716  
     16900         100   3.3104831      3.3104831      1.7755114      0.042599665  
     17000         100   3.209147       3.209147       1.7264761      0.042965611  
     17100         100   3.2979229      3.2979229      1.7737128      0.050491141  
     17200         100   3.4540706      3.4540706      1.8552026      0.046836441  
     17300         100   3.4426962      3.4426962      1.8557228      0.044630908  
     17400         100   3.4989587      3.4989587      1.8743592      0.046964883  
     17500         100   3.3603341      3.3603341      1.8015806      0.045939888  
     17600         100   3.3777923      3.3777923      1.8227198      0.048906918  
     17700         100   3.336582       3.336582       1.8077414      0.054720266  
     17800         100   3.3305521      3.3305521      1.8047919      0.048240544  
     17900         100   3.1239378      3.1239378      1.7055438      0.043137989  
     18000         100   3.0764984      3.0764984      1.6879016      0.039671758  
     18100         100   3.198278       3.198278       1.7508746      0.044298331  
     18200         100   3.2689324      3.2689324      1.7805288      0.045260485  
     18300         100   3.3455786      3.3455786      1.8313922      0.042219347  
     18400         100   3.4357077      3.4357077      1.8544952      0.043918623  
     18500         100   3.3771253      3.3771253      1.8370122      0.044322412  
     18600         100   3.3843997      3.3843997      1.8225397      0.04281696   
     18700         100   3.5976162      3.5976162      1.9320526      0.046951526  
     18800         100   3.6043602      3.6043602      1.9316844      0.050507661  
     18900         100   3.8830875      3.8830875      2.0757379      0.051467034  
     19000         100   3.7945319      3.7945319      2.02014        0.058815846  
     19100         100   4.1513382      4.1513382      2.2040109      0.05579443   
     19200         100   4.1509777      4.1509777      2.2092102      0.058114462  
     19300         100   4.0551011      4.0551011      2.1550998      0.056249856  
     19400         100   3.7914417      3.7914417      2.0281096      0.058700292  
     19500         100   3.8383914      3.8383914      2.0570967      0.06025662   
     19600         100   3.9633706      3.9633706      2.1049419      0.059055319  
     19700         100   3.9852029      3.9852029      2.1259825      0.058746063  
     19800         100   3.8721776      3.8721776      2.0672879      0.053760135  
     19900         100   3.8014769      3.8014769      2.0470535      0.049686714  
     20000         100   3.749016       3.749016       2.0092567      0.05613594   
Loop time of 0.200484 on 8 procs for 5000 steps with 100 atoms

Performance: 10773928.097 tau/day, 24939.648 timesteps/s, 2.494 Matom-step/s
99.6% CPU use with 8 MPI tasks x no OpenMP threads

MPI task timing breakdown:
Section |  min time  |  avg time  |  max time  |%varavg| %total
---------------------------------------------------------------
Pair    | 0.0016099  | 0.0036611  | 0.0052586  |   1.9 |  1.83
Neigh   | 0.0076026  | 0.011784   | 0.015364   |   2.3 |  5.88
Comm    | 0.016677   | 0.05561    | 0.070086   |   6.7 | 27.74
Output  | 0.0025148  | 0.0028679  | 0.0035297  |   0.6 |  1.43
Modify  | 0.01306    | 0.038861   | 0.054382   |   6.5 | 19.38
Other   |            | 0.0877     |            |       | 43.74

Nlocal:           12.5 ave          31 max           0 min
Histogram: 3 0 1 0 1 0 1 0 1 1
Nghost:           3.75 ave           8 max           0 min
Histogram: 1 2 1 1 0 0 0 0 1 2
Neighs:         19.875 ave          54 max           0 min
Histogram: 3 1 1 0 0 1 0 0 0 2

Total # of neighbors = 159
Ave neighs/atom = 1.59
Neighbor list builds = 914
Dangerous builds = 0

region          container delete
region          container block -6 6 -6 6 -6 6 units box
run             5000
Generated 0 of 1 mixed pair_coeff terms from geometric mixing rule
Per MPI rank memory allocation (min/avg/max) = 5.592 | 5.701 | 5.717 Mbytes
   Step        Atoms         Temp           c_1            c_2           Press     
     20000         100   3.749016       3.749016       2.0092567      0.055306361  
     20100         100   1.082289       1.082289       0.66794652     0.014212116  
     20200         100   0.90467435     0.90467435     0.57266412     0.01156679   
     20300         100   0.85737304     0.85737304     0.54245801     0.012757489  
     20400         100   0.84033977     0.84033977     0.51904067     0.010421122  
     20500         100   0.92585202     0.92585202     0.5589276      0.014720897  
     20600         100   0.97612531     0.97612531     0.58754348     0.013198309  
     20700         100   1.0237338      1.0237338      0.60710501     0.012658538  
     20800         100   0.92522205     0.92522205     0.54947196     0.024079813  
     20900         100   0.79750637     0.79750637     0.46954437     0.01097346   
     21000         100   0.67851121     0.67851121     0.39608624     0.011629414  
     21100         100   0.50394471     0.50394471     0.2943009      0.0068212104 
     21200         100   0.21118711     0.21118711     0.14363931     0.0043361468 
     21300         100   0.15212701     0.15212701     0.10351329     0.0039978082 
     21400         100   0.13740311     0.13740311     0.088506859    0.0018689291 
     21500         100   0.13059456     0.13059456     0.083809375    0.0026403978 
     21600         100   0.06601439     0.06601439     0.045738419    0.0013553547 
     21700         100   0.067961258    0.067961258    0.044738873    0.0013617907 
     21800         100   0.033652057    0.033652057    0.027659052    0.00092015008
     21900         100   0.026235686    0.026235686    0.020553335    0.00081315568
     22000         100   0.024499177    0.024499177    0.018849524    0.0006870095 
     22100         100   0.018138185    0.018138185    0.014469086    0.00043937564
     22200         100   0.015830436    0.015830436    0.012592894    0.00046061886
     22300         100   0.014210354    0.014210354    0.011187318    0.00041099983
     22400         100   0.011607752    0.011607752    0.0094057944   0.00039511354
     22500         100   0.01101765     0.01101765     0.0085338807   0.00080619344
     22600         100   0.0077521316   0.0077521316   0.0065328997   0.00029006502
     22700         100   0.0069605302   0.0069605302   0.0057700522   0.00023484955
     22800         100   0.0061165244   0.0061165244   0.0052922364   0.00019807443
     22900         100   0.0064159236   0.0064159236   0.0052889262   0.00017171829
     23000         100   0.0058620913   0.0058620913   0.0049425454   0.00014271024
     23100         100   0.0048523245   0.0048523245   0.0041822343   0.0001929038 
     23200         100   0.0035511746   0.0035511746   0.003235421    0.00011305286
     23300         100   0.0031987221   0.0031987221   0.0029365736   0.00066348944
     23400         100   0.002670688    0.002670688    0.0023848734   0.00013733541
     23500         100   0.0021242162   0.0021242162   0.002046528    8.2042689e-05
     23600         100   0.0021326409   0.0021326409   0.0020504349   6.9608523e-05
     23700         100   0.00215874     0.00215874     0.0020370591   6.8260902e-05
     23800         100   0.0022079552   0.0022079552   0.0020163732   5.8268989e-05
     23900         100   0.0018096374   0.0018096374   0.0017576892   6.6834576e-05
     24000         100   0.0016842539   0.0016842539   0.0016365684   0.00013952637
     24100         100   0.0016367841   0.0016367841   0.001554419    5.0089204e-05
     24200         100   0.0014783646   0.0014783646   0.0014051142   8.2838781e-05
     24300         100   0.0013952962   0.0013952962   0.0013289164   4.7343753e-05
     24400         100   0.0013330945   0.0013330945   0.0012813474   3.607581e-05 
     24500         100   0.0013194082   0.0013194082   0.0012701547   3.8143307e-05
     24600         100   0.0012590454   0.0012590454   0.0012160692   4.5929414e-05
     24700         100   0.0011539903   0.0011539903   0.0011217302   6.7487718e-05
     24800         100   0.0011121494   0.0011121494   0.001067902    5.1497386e-05
     24900         100   0.0010260976   0.0010260976   0.00096361262  3.4513382e-05
     25000         100   0.0010171031   0.0010171031   0.00094764436  3.4401983e-05
Loop time of 0.0979113 on 8 procs for 5000 steps with 100 atoms

Performance: 22060792.261 tau/day, 51066.649 timesteps/s, 5.107 Matom-step/s
99.6% CPU use with 8 MPI tasks x no OpenMP threads

MPI task timing breakdown:
Section |  min time  |  avg time  |  max time  |%varavg| %total
---------------------------------------------------------------
Pair    | 0.0014281  | 0.0028622  | 0.0054971  |   2.3 |  2.92
Neigh   | 0.0024964  | 0.0036754  | 0.0051171  |   1.4 |  3.75
Comm    | 0.01454    | 0.031567   | 0.050932   |   8.1 | 32.24
Output  | 0.0020353  | 0.0023215  | 0.0025347  |   0.4 |  2.37
Modify  | 0.0011732  | 0.010709   | 0.022885   |   8.4 | 10.94
Other   |            | 0.04678    |            |       | 47.77

Nlocal:           12.5 ave          27 max           0 min
Histogram: 4 0 0 0 0 0 0 0 1 3
Nghost:          6.125 ave          13 max           0 min
Histogram: 4 0 0 0 0 0 0 1 0 3
Neighs:           18.5 ave          48 max           0 min
Histogram: 4 0 0 0 0 1 0 1 1 1

Total # of neighbors = 148
Ave neighs/atom = 1.48
Neighbor list builds = 303
Dangerous builds = 0
Total wall time: 0:00:00
