LAMMPS (2 Aug 2023 - Development - bc02a7cc6)
# pouring spheres into container box

units		lj
atom_style      sphere
boundary        f f f
dimension	3
comm_modify     vel yes

region          box block -10 10 -10 10 -10 10 units box
create_box      2 box
Created orthogonal box = (-10 -10 -10) to (10 10 10)
  2 by 2 by 2 MPI processor grid

pair_style	hybrid gran/hooke 4000.0 NULL 100.0 NULL 0.5 1
pair_coeff	* * gran/hooke

region          container block -6 6 -6 6 -6 6 units box
fix		container all wall/gran/region hooke/history 		4000.0 NULL 100.0 NULL 0.5 1 region container

neighbor	0.3 bin
neigh_modify	delay 0 every 1 check yes

fix             2 all nve/sphere
fix		3 all gravity 1.0 vector 0 0 -1

region          slab block -2 2 -2 2 -2 2 units box
fix             ins all pour 100 2 4767548 vol 0.4 10 	        diam one 1.0 region slab ignore
Particle insertion: 48 every 566 steps, 100 by step 1133

timestep	0.005

compute         1 all temp
compute_modify  1 dynamic/dof yes

compute         2 all temp/sphere
compute_modify  2 dynamic/dof yes

thermo		100
thermo_style	custom step atoms temp c_1 c_2 press
thermo_modify   lost ignore
compute_modify  thermo_temp dynamic/dof yes

#dump		2 all image 100 image.*.jpg type type #		zoom 1.4 adiam 1.0 box no 0.0 axes yes 0.9 0.03
#dump_modify	2 pad 5

run	        5000
Generated 0 of 1 mixed pair_coeff terms from geometric mixing rule
Neighbor list info ...
  update: every = 1 steps, delay = 0 steps, check = yes
  max neighbors/atom: 2000, page size: 100000
  master list distance cutoff = 1.3
  ghost atom cutoff = 1.3
  binsize = 0.65, bins = 31 31 31
  1 neighbor lists, perpetual/occasional/extra = 1 0 0
  (1) pair gran/hooke, perpetual
      attributes: half, newton on, size
      pair build: half/size/bin/newton
      stencil: half/bin/3d
      bin: standard
Per MPI rank memory allocation (min/avg/max) = 0.4669 | 0.4669 | 0.4669 Mbytes
   Step        Atoms         Temp           c_1            c_2           Press     
         0           0   0              0              0              0            
WARNING: Fewer insertions than requested (src/GRANULAR/fix_pour.cpp:681)
       100          30   0.803783       0.803783       0.39507978     0.0029137134 
       200          30   1.1967995      1.1967995      0.5882574      0.0043383984 
       300          30   1.2814686      1.2814686      0.62987441     0.0046453238 
       400          30   0.82331082     0.82331082     0.41173176     0.0029845017 
       500          30   0.7708462      0.7708462      0.38777784     0.0043831147 
WARNING: Fewer insertions than requested (src/GRANULAR/fix_pour.cpp:681)
       600          64   0.51564897     0.51564897     0.26631577     0.0040059368 
       700          64   0.57239348     0.57239348     0.29566901     0.0045075987 
       800          64   0.61837087     0.61837087     0.32195387     0.0048123564 
       900          64   0.53061888     0.53061888     0.28564763     0.0055906552 
      1000          64   0.496299       0.496299       0.26801572     0.0061169128 
      1100          64   0.46068308     0.46068308     0.24699057     0.0055717699 
WARNING: Fewer insertions than requested (src/GRANULAR/fix_pour.cpp:681)
      1200          99   0.39206225     0.39206225     0.21356546     0.0066294211 
      1300          99   0.38624966     0.38624966     0.21345854     0.0049051051 
      1400          99   0.35615284     0.35615284     0.19785725     0.0046170772 
      1500          99   0.31486693     0.31486693     0.17429055     0.0064903431 
      1600          99   0.26369001     0.26369001     0.15095266     0.0045226844 
      1700         100   0.19259232     0.19259232     0.11308105     0.0073622776 
      1800         100   0.13724967     0.13724967     0.08327677     0.0058136792 
      1900         100   0.077213104    0.077213104    0.053159838    0.0016510392 
      2000         100   0.06529122     0.06529122     0.043728291    0.0020446139 
      2100         100   0.057428969    0.057428969    0.037974098    0.0012542755 
      2200         100   0.059072736    0.059072736    0.037425333    0.00095623983
      2300         100   0.034249057    0.034249057    0.025474186    0.00070887631
      2400         100   0.020633171    0.020633171    0.016199836    0.0016400803 
      2500         100   0.015414038    0.015414038    0.01231765     0.0011395889 
      2600         100   0.012947156    0.012947156    0.0097209418   0.00024529035
      2700         100   0.009250336    0.009250336    0.0073382763   0.000478836  
      2800         100   0.007357047    0.007357047    0.0060418821   0.00021331448
      2900         100   0.0082409243   0.0082409243   0.0062988494   0.00029599659
      3000         100   0.0042221898   0.0042221898   0.0035219106   0.00030422762
      3100         100   0.0035446786   0.0035446786   0.0029510424   0.00012657001
      3200         100   0.0030518641   0.0030518641   0.0025697805   0.00083289816
      3300         100   0.0026738795   0.0026738795   0.0022711191   6.9475508e-05
      3400         100   0.0017158078   0.0017158078   0.0016105516   9.476725e-05 
      3500         100   0.0016864894   0.0016864894   0.0015050907   4.3025797e-05
      3600         100   0.0013284682   0.0013284682   0.0012798811   4.0823119e-05
      3700         100   0.0010985422   0.0010985422   0.0010776583   8.7171466e-05
      3800         100   0.0012020498   0.0012020498   0.0010646598   1.9383003e-05
      3900         100   0.00069687437  0.00069687437  0.00072884931  8.6238203e-06
      4000         100   0.00065640638  0.00065640638  0.00069359208  0.00010706967
      4100         100   0.00061657364  0.00061657364  0.00063842014  7.8895418e-05
      4200         100   0.00053088385  0.00053088385  0.00057281629  4.6681626e-05
      4300         100   0.00052577676  0.00052577676  0.00056839291  6.5032424e-06
      4400         100   0.00052452971  0.00052452971  0.00056740457  6.4910552e-06
      4500         100   0.00051933981  0.00051933981  0.00055894411  3.7284746e-05
      4600         100   0.00045903696  0.00045903696  0.00050046287  3.9063513e-05
      4700         100   0.00043845299  0.00043845299  0.00048618251  3.1683738e-05
      4800         100   0.00035851237  0.00035851237  0.00042420617  4.4365905e-06
      4900         100   0.00030736949  0.00030736949  0.00038412547  4.9109096e-06
      5000         100   0.0003049826   0.0003049826   0.00038103984  1.1403028e-05
Loop time of 0.134998 on 8 procs for 5000 steps with 100 atoms

Performance: 16000292.302 tau/day, 37037.714 timesteps/s, 3.704 Matom-step/s
99.7% CPU use with 8 MPI tasks x no OpenMP threads

MPI task timing breakdown:
Section |  min time  |  avg time  |  max time  |%varavg| %total
---------------------------------------------------------------
Pair    | 0.0022187  | 0.0045226  | 0.0062261  |   2.4 |  3.35
Neigh   | 0.0024316  | 0.0039245  | 0.0052469  |   1.8 |  2.91
Comm    | 0.030617   | 0.051811   | 0.072623   |   8.8 | 38.38
Output  | 0.0028676  | 0.0033335  | 0.0037529  |   0.6 |  2.47
Modify  | 0.0041998  | 0.0167     | 0.031362   |   9.4 | 12.37
Other   |            | 0.05471    |            |       | 40.52

Nlocal:           12.5 ave          27 max           0 min
Histogram: 4 0 0 0 0 0 0 1 0 3
Nghost:          4.125 ave          11 max           0 min
Histogram: 4 0 0 0 0 0 2 1 0 1
Neighs:          20.25 ave          48 max           0 min
Histogram: 4 0 0 0 0 1 0 0 1 2

Total # of neighbors = 162
Ave neighs/atom = 1.62
Neighbor list builds = 281
Dangerous builds = 0

region          container delete
variable        theta equal (step-5000)*(4.0*PI/5000)
region          container block -6 6 -6 6 -6 6 units box                 rotate v_theta 0 0 0 0 0 1
run	        5000
Generated 0 of 1 mixed pair_coeff terms from geometric mixing rule
Per MPI rank memory allocation (min/avg/max) = 5.592 | 5.654 | 5.717 Mbytes
   Step        Atoms         Temp           c_1            c_2           Press     
      5000         100   0.0003049826   0.0003049826   0.00038103984  1.1273889e-05
      5100         100   0.55271064     0.55271064     0.30369553     0.010077155  
      5200         100   0.62740134     0.62740134     0.34316113     0.009733663  
      5300         100   0.74641567     0.74641567     0.39704976     0.010835077  
      5400         100   0.79920391     0.79920391     0.42041772     0.013470722  
      5500         100   0.90026872     0.90026872     0.46775466     0.014322191  
      5600         100   0.97116496     0.97116496     0.49791759     0.016106291  
      5700         100   1.0158895      1.0158895      0.51720603     0.014130848  
      5800         100   1.0684753      1.0684753      0.54132668     0.016645136  
      5900         100   1.1016948      1.1016948      0.55555073     0.016619989  
      6000         100   1.1303062      1.1303062      0.56988367     0.019716416  
      6100         100   1.1397278      1.1397278      0.57522647     0.01842866   
      6200         100   1.1669251      1.1669251      0.58744092     0.019616614  
      6300         100   1.1961414      1.1961414      0.60098494     0.019326002  
      6400         100   1.2205989      1.2205989      0.61224916     0.019993212  
      6500         100   1.2281146      1.2281146      0.61581498     0.018784132  
      6600         100   1.2318585      1.2318585      0.61722797     0.019610901  
      6700         100   1.2389541      1.2389541      0.62053669     0.019988764  
      6800         100   1.2527542      1.2527542      0.62719388     0.019470851  
      6900         100   1.2598521      1.2598521      0.63102683     0.020907233  
      7000         100   1.2772543      1.2772543      0.64016994     0.021352278  
      7100         100   1.2934631      1.2934631      0.64755069     0.020845815  
      7200         100   1.3037772      1.3037772      0.652513       0.021532695  
      7300         100   1.3182784      1.3182784      0.65900688     0.02151279   
      7400         100   1.3222273      1.3222273      0.6610042      0.021593434  
      7500         100   1.3290077      1.3290077      0.66398039     0.021697851  
      7600         100   1.332268       1.332268       0.66597206     0.021831598  
      7700         100   1.33171        1.33171        0.66559178     0.021732356  
      7800         100   1.3287921      1.3287921      0.66377868     0.021633634  
      7900         100   1.3279575      1.3279575      0.66340878     0.021815847  
      8000         100   1.3261119      1.3261119      0.66214731     0.021823927  
      8100         100   1.3257913      1.3257913      0.66195145     0.021396795  
      8200         100   1.3282189      1.3282189      0.66315846     0.021597302  
      8300         100   1.3305021      1.3305021      0.66430549     0.021741305  
      8400         100   1.3313585      1.3313585      0.66483237     0.021726273  
      8500         100   1.3318316      1.3318316      0.66525684     0.021751553  
      8600         100   1.3359026      1.3359026      0.66697581     0.023177185  
      8700         100   1.3314211      1.3314211      0.6647148      0.021874651  
      8800         100   1.331601       1.331601       0.66481754     0.021970046  
      8900         100   1.3325679      1.3325679      0.66527345     0.021900758  
      9000         100   1.3330966      1.3330966      0.66552782     0.02182819   
      9100         100   1.332945       1.332945       0.665461       0.022029192  
      9200         100   1.3326747      1.3326747      0.66532422     0.022381333  
      9300         100   1.3326307      1.3326307      0.66529885     0.022589287  
      9400         100   1.3327505      1.3327505      0.6653569      0.022599765  
      9500         100   1.3327098      1.3327098      0.66533613     0.022514648  
      9600         100   1.3328739      1.3328739      0.66541417     0.022497823  
      9700         100   1.3330423      1.3330423      0.66549706     0.022527141  
      9800         100   1.3331526      1.3331526      0.66554749     0.022526561  
      9900         100   1.3332409      1.3332409      0.66559008     0.022535453  
     10000         100   1.3330844      1.3330844      0.66550734     0.022475056  
Loop time of 0.278682 on 8 procs for 5000 steps with 100 atoms

Performance: 7750769.510 tau/day, 17941.596 timesteps/s, 1.794 Matom-step/s
98.7% CPU use with 8 MPI tasks x no OpenMP threads

MPI task timing breakdown:
Section |  min time  |  avg time  |  max time  |%varavg| %total
---------------------------------------------------------------
Pair    | 0.0020476  | 0.010353   | 0.018262   |   6.8 |  3.71
Neigh   | 0.003444   | 0.0091333  | 0.016839   |   4.6 |  3.28
Comm    | 0.017864   | 0.057658   | 0.10214    |  15.2 | 20.69
Output  | 0.0032352  | 0.0041583  | 0.0047408  |   1.0 |  1.49
Modify  | 0.011773   | 0.059374   | 0.10664    |  16.8 | 21.31
Other   |            | 0.138      |            |       | 49.52

Nlocal:           12.5 ave          29 max           0 min
Histogram: 4 0 0 0 0 0 1 0 1 2
Nghost:           3.25 ave           7 max           0 min
Histogram: 4 0 0 0 0 0 0 0 2 2
Neighs:         25.125 ave          65 max           0 min
Histogram: 4 0 0 0 1 0 0 0 2 1

Total # of neighbors = 201
Ave neighs/atom = 2.01
Neighbor list builds = 626
Dangerous builds = 0

region          container delete
region          container block -6 6 -6 6 -6 6 units box
run             5000
Generated 0 of 1 mixed pair_coeff terms from geometric mixing rule
Per MPI rank memory allocation (min/avg/max) = 5.592 | 5.654 | 5.717 Mbytes
   Step        Atoms         Temp           c_1            c_2           Press     
     10000         100   1.3330844      1.3330844      0.66550734     0.022461036  
     10100         100   0.23522219     0.23522219     0.13950283     0.0084367295 
     10200         100   0.12414868     0.12414868     0.08669137     0.0026177457 
     10300         100   0.074573239    0.074573239    0.058900232    0.00049006123
     10400         100   0.055570776    0.055570776    0.04665756     0.000931538  
     10500         100   0.036517555    0.036517555    0.03215228     0.00086205991
     10600         100   0.023227074    0.023227074    0.023152092    0.0010434248 
     10700         100   0.017224111    0.017224111    0.017854636    0.0003407256 
     10800         100   0.013367125    0.013367125    0.014488326    0.00049483692
     10900         100   0.011114175    0.011114175    0.012144671    0.0001525757 
     11000         100   0.0094769766   0.0094769766   0.010570819    0.00011727759
     11100         100   0.0081556498   0.0081556498   0.0089805625   0.00020675545
     11200         100   0.0073461463   0.0073461463   0.0081019259   0.00012046833
     11300         100   0.006603643    0.006603643    0.0074799194   8.1720082e-05
     11400         100   0.005446379    0.005446379    0.0061819088   6.814078e-05 
     11500         100   0.00491982     0.00491982     0.0056782541   7.763438e-05 
     11600         100   0.0048448394   0.0048448394   0.0056193567   6.0066402e-05
     11700         100   0.0046404401   0.0046404401   0.0053774772   5.7034461e-05
     11800         100   0.0042427593   0.0042427593   0.0049814727   5.2137404e-05
     11900         100   0.0040173204   0.0040173204   0.0047255997   5.4935983e-05
     12000         100   0.0038585027   0.0038585027   0.0045282613   7.7752295e-05
     12100         100   0.0036775079   0.0036775079   0.0042992389   0.00022448535
     12200         100   0.0035993115   0.0035993115   0.0041832279   4.454148e-05 
     12300         100   0.003312688    0.003312688    0.0038983524   8.6381648e-05
     12400         100   0.0031293461   0.0031293461   0.0036402409   5.2241418e-05
     12500         100   0.0030446754   0.0030446754   0.0035562137   3.7677858e-05
     12600         100   0.0030110857   0.0030110857   0.0035169109   5.1070554e-05
     12700         100   0.0030032373   0.0030032373   0.0035116924   3.7172537e-05
     12800         100   0.0027948783   0.0027948783   0.0033280266   3.4586619e-05
     12900         100   0.002736226    0.002736226    0.003180242    3.5988086e-05
     13000         100   0.0026688468   0.0026688468   0.0031198483   3.3074583e-05
     13100         100   0.0025586759   0.0025586759   0.0029773232   0.00012301811
     13200         100   0.0024157128   0.0024157128   0.002796435    2.9894446e-05
     13300         100   0.0021960293   0.0021960293   0.0025764664   2.7175863e-05
     13400         100   0.0021539308   0.0021539308   0.0025517275   5.3198929e-05
     13500         100   0.0020375074   0.0020375074   0.0024654781   3.4603945e-05
     13600         100   0.0019405508   0.0019405508   0.0023318526   2.4014316e-05
     13700         100   0.0017943235   0.0017943235   0.0020787122   2.1426124e-05
     13800         100   0.0017794871   0.0017794871   0.0020288594   2.191375e-05 
     13900         100   0.0017438327   0.0017438327   0.0019990528   2.1579955e-05
     14000         100   0.0016431858   0.0016431858   0.0019086325   4.3332475e-05
     14100         100   0.0016261059   0.0016261059   0.0018944106   2.0123077e-05
     14200         100   0.0014312938   0.0014312938   0.0015612477   4.5833417e-05
     14300         100   0.0013571661   0.0013571661   0.001479247    6.5564286e-05
     14400         100   0.0012515599   0.0012515599   0.0013434539   3.1304174e-05
     14500         100   0.0011351897   0.0011351897   0.0012044055   1.6395426e-05
     14600         100   0.0011021724   0.0011021724   0.0011786092   1.3435524e-05
     14700         100   0.00095674447  0.00095674447  0.00099574288  1.1839717e-05
     14800         100   0.00091293063  0.00091293063  0.00092519167  1.8414308e-05
     14900         100   0.00087043328  0.00087043328  0.00089197789  0.00011475174
     15000         100   0.00081717947  0.00081717947  0.00084570444  1.0112598e-05
Loop time of 0.123217 on 8 procs for 5000 steps with 100 atoms

Performance: 17530098.888 tau/day, 40578.933 timesteps/s, 4.058 Matom-step/s
100.0% CPU use with 8 MPI tasks x no OpenMP threads

MPI task timing breakdown:
Section |  min time  |  avg time  |  max time  |%varavg| %total
---------------------------------------------------------------
Pair    | 0.0015585  | 0.0038508  | 0.0059393  |   2.6 |  3.13
Neigh   | 0.0004447  | 0.0011655  | 0.0018078  |   1.5 |  0.95
Comm    | 0.004578   | 0.032826   | 0.062313   |  14.8 | 26.64
Output  | 0.0026151  | 0.0031467  | 0.0035027  |   0.7 |  2.55
Modify  | 0.00099379 | 0.016571   | 0.035562   |  11.9 | 13.45
Other   |            | 0.06566    |            |       | 53.29

Nlocal:           12.5 ave          28 max           0 min
Histogram: 4 0 0 0 0 0 0 0 3 1
Nghost:          5.875 ave          13 max           0 min
Histogram: 4 0 0 0 0 0 0 1 1 2
Neighs:           19.5 ave          51 max           0 min
Histogram: 4 0 0 0 0 1 1 0 1 1

Total # of neighbors = 156
Ave neighs/atom = 1.56
Neighbor list builds = 87
Dangerous builds = 0

region          container delete
variable        theta equal (step-15000)*(4.0*PI/5000)
region          container block -6 6 -6 6 -6 6 units box                 rotate v_theta 0 0 0 1 1 1
run	        5000
Generated 0 of 1 mixed pair_coeff terms from geometric mixing rule
Per MPI rank memory allocation (min/avg/max) = 5.592 | 5.654 | 5.717 Mbytes
   Step        Atoms         Temp           c_1            c_2           Press     
     15000         100   0.00081717947  0.00081717947  0.00084570444  1.0112598e-05
     15100         100   1.1196474      1.1196474      0.70332236     0.023429761  
     15200         100   1.1698811      1.1698811      0.74893324     0.018924253  
     15300         100   1.2597566      1.2597566      0.79916854     0.017825586  
     15400         100   1.4663454      1.4663454      0.92580606     0.02256449   
     15500         100   1.73177        1.73177        1.0588242      0.035904978  
     15600         100   1.9128351      1.9128351      1.1391342      0.03121551   
     15700         100   2.0689943      2.0689943      1.2136683      0.029248482  
     15800         100   2.1682145      2.1682145      1.2335658      0.033913471  
     15900         100   2.3073911      2.3073911      1.2969662      0.031885821  
     16000         100   2.3903255      2.3903255      1.3302143      0.032093441  
     16100         100   2.5814867      2.5814867      1.4146875      0.035230661  
     16200         100   2.5577403      2.5577403      1.3932599      0.032721922  
     16300         100   2.631319       2.631319       1.4362037      0.037193696  
     16400         100   2.8609676      2.8609676      1.5440614      0.03540349   
     16500         100   2.8338957      2.8338957      1.5428938      0.037392665  
     16600         100   2.8703402      2.8703402      1.5678609      0.037148522  
     16700         100   3.0459172      3.0459172      1.6418819      0.042919236  
     16800         100   3.166687       3.166687       1.7124536      0.041708365  
     16900         100   3.0726053      3.0726053      1.6654893      0.043042236  
     17000         100   3.1915167      3.1915167      1.7184858      0.042468476  
     17100         100   3.4434949      3.4434949      1.8474551      0.045918382  
     17200         100   3.3160167      3.3160167      1.7871718      0.052329824  
     17300         100   3.499187       3.499187       1.8902953      0.04415705   
     17400         100   3.2823865      3.2823865      1.8002616      0.053153906  
     17500         100   3.3155848      3.3155848      1.7896929      0.053377455  
     17600         100   3.3015252      3.3015252      1.7872861      0.057422921  
     17700         100   3.3574122      3.3574122      1.81743        0.050196542  
     17800         100   3.2210157      3.2210157      1.7503368      0.040642354  
     17900         100   3.1666494      3.1666494      1.749691       0.042192896  
     18000         100   3.2654257      3.2654257      1.8028844      0.04506403   
     18100         100   3.2987515      3.2987515      1.8006121      0.046597814  
     18200         100   3.3336448      3.3336448      1.8272194      0.042600889  
     18300         100   3.3767747      3.3767747      1.8572323      0.043253618  
     18400         100   3.4523335      3.4523335      1.8861525      0.04771196   
     18500         100   3.6164929      3.6164929      1.9618564      0.049224076  
     18600         100   3.6218613      3.6218613      1.9544359      0.050594866  
     18700         100   3.5845373      3.5845373      1.9389702      0.045510957  
     18800         100   3.8286526      3.8286526      2.0554052      0.049333267  
     18900         100   3.7660633      3.7660633      2.0158054      0.058313452  
     19000         100   3.8340056      3.8340056      2.0528905      0.053173784  
     19100         100   3.9981259      3.9981259      2.1417933      0.051854641  
     19200         100   3.9086785      3.9086785      2.1110583      0.051849699  
     19300         100   3.9522821      3.9522821      2.1419288      0.052165955  
     19400         100   3.7746795      3.7746795      2.0363602      0.051016383  
     19500         100   3.8997182      3.8997182      2.1077681      0.053628343  
     19600         100   3.7518888      3.7518888      2.0251172      0.074764374  
     19700         100   3.7677247      3.7677247      2.0073163      0.058836934  
     19800         100   3.8717524      3.8717524      2.0684107      0.058016207  
     19900         100   3.8498121      3.8498121      2.0537931      0.050532203  
     20000         100   3.7953307      3.7953307      2.0415343      0.056202169  
Loop time of 0.280756 on 8 procs for 5000 steps with 100 atoms

Performance: 7693521.343 tau/day, 17809.077 timesteps/s, 1.781 Matom-step/s
99.8% CPU use with 8 MPI tasks x no OpenMP threads

MPI task timing breakdown:
Section |  min time  |  avg time  |  max time  |%varavg| %total
---------------------------------------------------------------
Pair    | 0.0029604  | 0.0059089  | 0.010315   |   2.7 |  2.10
Neigh   | 0.0068966  | 0.012901   | 0.018553   |   3.3 |  4.59
Comm    | 0.028371   | 0.08777    | 0.11515    |   8.2 | 31.26
Output  | 0.0035168  | 0.0041433  | 0.0050139  |   0.8 |  1.48
Modify  | 0.016685   | 0.04923    | 0.080499   |   8.2 | 17.53
Other   |            | 0.1208     |            |       | 43.03

Nlocal:           12.5 ave          30 max           0 min
Histogram: 2 1 1 0 0 1 0 1 1 1
Nghost:          3.125 ave           7 max           0 min
Histogram: 1 1 2 0 1 0 0 2 0 1
Neighs:         18.625 ave          58 max           0 min
Histogram: 3 1 0 1 0 2 0 0 0 1

Total # of neighbors = 149
Ave neighs/atom = 1.49
Neighbor list builds = 919
Dangerous builds = 0

region          container delete
region          container block -6 6 -6 6 -6 6 units box
run             5000
Generated 0 of 1 mixed pair_coeff terms from geometric mixing rule
Per MPI rank memory allocation (min/avg/max) = 5.592 | 5.701 | 5.717 Mbytes
   Step        Atoms         Temp           c_1            c_2           Press     
     20000         100   3.7953307      3.7953307      2.0415343      0.055873283  
     20100         100   1.0694174      1.0694174      0.67265253     0.013234041  
     20200         100   0.93930797     0.93930797     0.59600945     0.011623936  
     20300         100   0.97298302     0.97298302     0.59205784     0.012419234  
     20400         100   0.92239573     0.92239573     0.55396764     0.011740242  
     20500         100   0.98099059     0.98099059     0.5752604      0.012477273  
     20600         100   0.99510228     0.99510228     0.5763468      0.012209654  
     20700         100   1.0933878      1.0933878      0.62129208     0.014099653  
     20800         100   1.1797078      1.1797078      0.65198717     0.014657226  
     20900         100   0.68535254     0.68535254     0.40191037     0.0089384298 
     21000         100   0.34796499     0.34796499     0.22064639     0.0067666106 
     21100         100   0.23340078     0.23340078     0.15323788     0.0044768602 
     21200         100   0.14366031     0.14366031     0.10416837     0.0042645351 
     21300         100   0.10759685     0.10759685     0.079918144    0.0018298886 
     21400         100   0.073032751    0.073032751    0.057715562    0.0042522967 
     21500         100   0.052448312    0.052448312    0.040081175    0.0018651144 
     21600         100   0.037528984    0.037528984    0.030778338    0.0011018996 
     21700         100   0.032460776    0.032460776    0.026537251    0.0012842075 
     21800         100   0.025171707    0.025171707    0.021190199    0.0013641333 
     21900         100   0.020499801    0.020499801    0.01676908     0.00090541954
     22000         100   0.019697487    0.019697487    0.015392878    0.00061676562
     22100         100   0.015728626    0.015728626    0.012042036    0.0011902089 
     22200         100   0.014429266    0.014429266    0.010614184    0.00043757863
     22300         100   0.0084886031   0.0084886031   0.0068828651   0.00041976825
     22400         100   0.0087729809   0.0087729809   0.0069098071   0.00025483442
     22500         100   0.0072177612   0.0072177612   0.0058777216   0.0002579399 
     22600         100   0.0053785783   0.0053785783   0.0043865298   0.00033882461
     22700         100   0.0047458698   0.0047458698   0.003762556    0.00025126092
     22800         100   0.0038806551   0.0038806551   0.0031270278   0.00023079959
     22900         100   0.0043824344   0.0043824344   0.003325215    0.0003151159 
     23000         100   0.0035449493   0.0035449493   0.0028066994   0.00014987681
     23100         100   0.0028240859   0.0028240859   0.0022900289   0.00036308418
     23200         100   0.0024117442   0.0024117442   0.001974937    0.0005984656 
     23300         100   0.0016565475   0.0016565475   0.0014228745   0.00030140213
     23400         100   0.0013762015   0.0013762015   0.0012166866   0.00053236164
     23500         100   0.0013430144   0.0013430144   0.0011371547   0.00010139954
     23600         100   0.00095763067  0.00095763067  0.000919378    0.00025621427
     23700         100   0.00090627286  0.00090627286  0.0008859974   8.0584861e-05
     23800         100   0.0008580518   0.0008580518   0.0008356048   0.00011036902
     23900         100   0.000856694    0.000856694    0.00084046402  0.00010736399
     24000         100   0.00080492172  0.00080492172  0.00079598386  0.00014628295
     24100         100   0.00075264818  0.00075264818  0.00077133729  0.00011701357
     24200         100   0.00075964288  0.00075964288  0.00079114363  8.8071683e-05
     24300         100   0.0010059253   0.0010059253   0.00093729717  5.0186544e-05
     24400         100   0.00084174116  0.00084174116  0.00087206267  4.4777756e-05
     24500         100   0.0012514605   0.0012514605   0.0011338032   3.9211245e-05
     24600         100   0.0026406346   0.0026406346   0.0018197842   5.8075208e-05
     24700         100   0.0006468992   0.0006468992   0.00066522285  5.0612346e-05
     24800         100   0.00061097577  0.00061097577  0.00063221196  6.5443432e-05
     24900         100   0.00058123618  0.00058123618  0.00060358087  4.0941515e-05
     25000         100   0.00057475492  0.00057475492  0.0005931703   3.7432724e-05
Loop time of 0.130856 on 8 procs for 5000 steps with 100 atoms

Performance: 16506636.608 tau/day, 38209.807 timesteps/s, 3.821 Matom-step/s
100.0% CPU use with 8 MPI tasks x no OpenMP threads

MPI task timing breakdown:
Section |  min time  |  avg time  |  max time  |%varavg| %total
---------------------------------------------------------------
Pair    | 0.0014198  | 0.0046209  | 0.0079314  |   3.8 |  3.53
Neigh   | 0.0017529  | 0.0034097  | 0.0055181  |   2.5 |  2.61
Comm    | 0.013986   | 0.038875   | 0.063853   |  10.1 | 29.71
Output  | 0.0027579  | 0.0032012  | 0.0036703  |   0.6 |  2.45
Modify  | 0.0018003  | 0.01716    | 0.035388   |  11.5 | 13.11
Other   |            | 0.06359    |            |       | 48.59

Nlocal:           12.5 ave          30 max           0 min
Histogram: 4 0 0 0 0 0 1 0 1 2
Nghost:          4.625 ave          11 max           0 min
Histogram: 4 0 0 0 0 0 0 2 0 2
Neighs:          20.25 ave          55 max           0 min
Histogram: 4 0 0 0 1 0 1 0 1 1

Total # of neighbors = 162
Ave neighs/atom = 1.62
Neighbor list builds = 258
Dangerous builds = 0
Total wall time: 0:00:00
