LAMMPS (4 Jan 2019)
# pour particles into cone-shaped funnel, settle them, let them run out bottom

variable	name string funnel_pour

thermo_modify	flush yes
units 		si
variable	PI equal 3.141592653589
variable	seed equal 14314

###############################################
# Geometry-related parameters
###############################################

variable	xlo equal 10
variable	xhi equal 40
variable	ylo equal 10
variable	yhi equal 40
variable	zlo equal -20
variable	zhi equal 50

variable	xc equal 25
variable	yc equal 25

variable	zconehi equal 50
variable	zconelo equal 10
variable	zcyllo equal 0
variable	radconelo equal 2
variable	radconehi equal 20

################################################
# Particle sizes
################################################

variable	rlo equal 0.25
variable	rhi equal 0.5
variable	dlo equal 2.0*${rlo}
variable	dlo equal 2.0*0.25
variable	dhi equal 2.0*${rhi}
variable	dhi equal 2.0*0.5

variable 	skin equal ${rhi}
variable 	skin equal 0.5

###############################################
# Granular contact parameters
###############################################

variable	coeffRes equal 0.1
variable	coeffFric equal 0.5

variable	density equal 1.0
variable	EYoung equal 10^5
variable 	Poisson equal 2.0/7.0
variable	GShear equal ${EYoung}/(2*(1+${Poisson}))
variable	GShear equal 100000/(2*(1+${Poisson}))
variable	GShear equal 100000/(2*(1+0.285714285714286))

variable	gravity equal 1.0

variable	reff equal 0.5*(${rhi}+${rlo})
variable	reff equal 0.5*(0.5+${rlo})
variable	reff equal 0.5*(0.5+0.25)
variable	meff equal ${density}*4.0/3.0*${PI}*${reff}^3
variable	meff equal 1*4.0/3.0*${PI}*${reff}^3
variable	meff equal 1*4.0/3.0*3.141592653589*${reff}^3
variable	meff equal 1*4.0/3.0*3.141592653589*0.375^3
variable	min_mass equal ${density}*4.0/3.0*${PI}*${rlo}*${rlo}*${rlo}
variable	min_mass equal 1*4.0/3.0*${PI}*${rlo}*${rlo}*${rlo}
variable	min_mass equal 1*4.0/3.0*3.141592653589*${rlo}*${rlo}*${rlo}
variable	min_mass equal 1*4.0/3.0*3.141592653589*0.25*${rlo}*${rlo}
variable	min_mass equal 1*4.0/3.0*3.141592653589*0.25*0.25*${rlo}
variable	min_mass equal 1*4.0/3.0*3.141592653589*0.25*0.25*0.25
variable	max_mass equal ${density}*4.0/3.0*${PI}*${rhi}*${rhi}*${rhi}
variable	max_mass equal 1*4.0/3.0*${PI}*${rhi}*${rhi}*${rhi}
variable	max_mass equal 1*4.0/3.0*3.141592653589*${rhi}*${rhi}*${rhi}
variable	max_mass equal 1*4.0/3.0*3.141592653589*0.5*${rhi}*${rhi}
variable	max_mass equal 1*4.0/3.0*3.141592653589*0.5*0.5*${rhi}
variable	max_mass equal 1*4.0/3.0*3.141592653589*0.5*0.5*0.5

## Typical way to set kn, kt, etc.:
variable        kn equal 4.0*${GShear}/(3*(1-${Poisson}))
variable        kn equal 4.0*38888.8888888889/(3*(1-${Poisson}))
variable        kn equal 4.0*38888.8888888889/(3*(1-0.285714285714286))
variable        kt equal 4.0*${GShear}/(2-${Poisson})
variable        kt equal 4.0*38888.8888888889/(2-${Poisson})
variable        kt equal 4.0*38888.8888888889/(2-0.285714285714286)

variable	a equal (-2.0*log(${coeffRes})/${PI})^2
variable	a equal (-2.0*log(0.1)/${PI})^2
variable	a equal (-2.0*log(0.1)/3.141592653589)^2
variable        gamma_n equal sqrt($a*2*${kn}/${min_mass}/(1+0.25*$a))
variable        gamma_n equal sqrt(0.405284734569556*2*${kn}/${min_mass}/(1+0.25*$a))
variable        gamma_n equal sqrt(0.405284734569556*2*72592.5925925926/${min_mass}/(1+0.25*$a))
variable        gamma_n equal sqrt(0.405284734569556*2*72592.5925925926/0.0654498469497708/(1+0.25*$a))
variable        gamma_n equal sqrt(0.405284734569556*2*72592.5925925926/0.0654498469497708/(1+0.25*0.405284734569556))
variable        gamma_t equal ${gamma_n}*0.5
variable        gamma_t equal 903.503751814138*0.5

variable	tcol equal ${PI}/sqrt(2*${kn}/${min_mass}-${gamma_n}/4.0)
variable	tcol equal 3.141592653589/sqrt(2*${kn}/${min_mass}-${gamma_n}/4.0)
variable	tcol equal 3.141592653589/sqrt(2*72592.5925925926/${min_mass}-${gamma_n}/4.0)
variable	tcol equal 3.141592653589/sqrt(2*72592.5925925926/0.0654498469497708-${gamma_n}/4.0)
variable	tcol equal 3.141592653589/sqrt(2*72592.5925925926/0.0654498469497708-903.503751814138/4.0)

variable	dt equal ${tcol}*0.05
variable	dt equal 0.00210943016014969*0.05
timestep	${dt}
timestep	0.000105471508007485

###############################################
variable	dumpfreq equal 1000
variable	logfreq equal 1000

newton 		off
atom_style	sphere

boundary	p p f

region		boxreg block ${xlo} ${xhi} ${ylo} ${yhi} ${zlo} ${zhi}
region		boxreg block 10 ${xhi} ${ylo} ${yhi} ${zlo} ${zhi}
region		boxreg block 10 40 ${ylo} ${yhi} ${zlo} ${zhi}
region		boxreg block 10 40 10 ${yhi} ${zlo} ${zhi}
region		boxreg block 10 40 10 40 ${zlo} ${zhi}
region		boxreg block 10 40 10 40 -20 ${zhi}
region		boxreg block 10 40 10 40 -20 50
create_box	1 boxreg
Created orthogonal box = (10 10 -20) to (40 40 50)
  1 by 2 by 4 MPI processor grid

pair_style	gran/hertz/history 		${kn} ${kt} ${gamma_n} ${gamma_t} ${coeffFric} 1
pair_style	gran/hertz/history 		72592.5925925926 ${kt} ${gamma_n} ${gamma_t} ${coeffFric} 1
pair_style	gran/hertz/history 		72592.5925925926 90740.7407407408 ${gamma_n} ${gamma_t} ${coeffFric} 1
pair_style	gran/hertz/history 		72592.5925925926 90740.7407407408 903.503751814138 ${gamma_t} ${coeffFric} 1
pair_style	gran/hertz/history 		72592.5925925926 90740.7407407408 903.503751814138 451.751875907069 ${coeffFric} 1
pair_style	gran/hertz/history 		72592.5925925926 90740.7407407408 903.503751814138 451.751875907069 0.5 1
pair_coeff	* *

neighbor        ${skin} bin
neighbor        0.5 bin
thermo 		${logfreq}
thermo 		1000

comm_style	brick
comm_modify 	mode multi group all vel yes
balance		1.1 shift xyz 20 1.1
Neighbor list info ...
  update every 1 steps, delay 10 steps, check yes
  max neighbors/atom: 2000, page size: 100000
  master list distance cutoff = 0
  ghost atom cutoff = 0
  binsize = 30, bins = 1 1 3
  1 neighbor lists, perpetual/occasional/extra = 1 0 0
  (1) pair gran/hertz/history, perpetual
      attributes: half, newton off, size, history
      pair build: half/size/bin/newtoff
      stencil: half/bin/3d/newtoff
      bin: standard
fix		bal all balance 10000 1.1 shift xyz 20 1.01

####################### Options specific to pouring #########################

# insertion region for fix/pour

region	     	insreg cylinder z ${xc} ${yc} 10 30 50 side in units box
region	     	insreg cylinder z 25 ${yc} 10 30 50 side in units box
region	     	insreg cylinder z 25 25 10 30 50 side in units box

# define cone and cylinder regions - see lammps doc on region command
# note new open options

region	    	cylreg cylinder z ${xc} ${yc} ${radconelo} 		${zcyllo} ${zconelo} side in units box 		open 2 #Top is open
region	    	cylreg cylinder z 25 ${yc} ${radconelo} 		${zcyllo} ${zconelo} side in units box 		open 2 
region	    	cylreg cylinder z 25 25 ${radconelo} 		${zcyllo} ${zconelo} side in units box 		open 2 
region	    	cylreg cylinder z 25 25 2 		${zcyllo} ${zconelo} side in units box 		open 2 
region	    	cylreg cylinder z 25 25 2 		0 ${zconelo} side in units box 		open 2 
region	    	cylreg cylinder z 25 25 2 		0 10 side in units box 		open 2 

region		conereg cone z ${xc} ${yc} ${radconelo} ${radconehi} 		${zconelo} ${zconehi} side in units box 		open 1 open 2 #Bottom and top are open
region		conereg cone z 25 ${yc} ${radconelo} ${radconehi} 		${zconelo} ${zconehi} side in units box 		open 1 open 2 
region		conereg cone z 25 25 ${radconelo} ${radconehi} 		${zconelo} ${zconehi} side in units box 		open 1 open 2 
region		conereg cone z 25 25 2 ${radconehi} 		${zconelo} ${zconehi} side in units box 		open 1 open 2 
region		conereg cone z 25 25 2 20 		${zconelo} ${zconehi} side in units box 		open 1 open 2 
region		conereg cone z 25 25 2 20 		10 ${zconehi} side in units box 		open 1 open 2 
region		conereg cone z 25 25 2 20 		10 50 side in units box 		open 1 open 2 

region		hopreg union 2 conereg cylreg

fix		grav all gravity ${gravity} vector 0 0 -1
fix		grav all gravity 1 vector 0 0 -1
fix		1 all nve/sphere


fix		hopper3 all wall/gran/region hertz/history                 ${kn} ${kt} ${gamma_n} ${gamma_t} ${coeffFric} 1 region hopreg
fix		hopper3 all wall/gran/region hertz/history                 72592.5925925926 ${kt} ${gamma_n} ${gamma_t} ${coeffFric} 1 region hopreg
fix		hopper3 all wall/gran/region hertz/history                 72592.5925925926 90740.7407407408 ${gamma_n} ${gamma_t} ${coeffFric} 1 region hopreg
fix		hopper3 all wall/gran/region hertz/history                 72592.5925925926 90740.7407407408 903.503751814138 ${gamma_t} ${coeffFric} 1 region hopreg
fix		hopper3 all wall/gran/region hertz/history                 72592.5925925926 90740.7407407408 903.503751814138 451.751875907069 ${coeffFric} 1 region hopreg
fix		hopper3 all wall/gran/region hertz/history                 72592.5925925926 90740.7407407408 903.503751814138 451.751875907069 0.5 1 region hopreg

fix		ins all pour 2000 1 42424 region insreg 		diam range ${dlo} ${dhi} dens ${density} ${density}
fix		ins all pour 2000 1 42424 region insreg 		diam range 0.5 ${dhi} dens ${density} ${density}
fix		ins all pour 2000 1 42424 region insreg 		diam range 0.5 1 dens ${density} ${density}
fix		ins all pour 2000 1 42424 region insreg 		diam range 0.5 1 dens 1 ${density}
fix		ins all pour 2000 1 42424 region insreg 		diam range 0.5 1 dens 1 1
Particle insertion: 3000 every 59965 steps, 2000 by step 1

#dump		1 all custom ${dumpfreq} ${name}.dump #		id type mass diameter x y z

#dump		2 all image 4000 image.*.jpg type type #		axes yes 0.8 0.02 view 60 -30 zoom 3.0 #                box no 0.0 axes no 0.0 0.0
#dump_modify	2 pad 6

thermo_style	custom step cpu atoms ke
WARNING: New thermo_style command, previous thermo_modify settings will be lost (../output.cpp:705)
thermo_modify	flush yes lost warn

# Initial run to fill up the cone

run		20000
Per MPI rank memory allocation (min/avg/max) = 5.94 | 5.94 | 5.94 Mbytes
Step CPU Atoms KinEng 
       0            0        0           -0 
    1000   0.31339497     2000           -0 
    2000   0.49685018     2000           -0 
    3000   0.67755113     2000           -0 
    4000   0.85482871     2000           -0 
    5000     1.032673     2000           -0 
    6000    1.2054464     2000           -0 
    7000    1.3741314     2000           -0 
    8000    1.5364486     2000           -0 
    9000    1.6981527     2000           -0 
   10000    1.8566216     2000           -0 
   11000      1.93362     2000           -0 
   12000    2.0119823     2000           -0 
   13000    2.0908445     2000           -0 
   14000    2.1701453     2000           -0 
   15000    2.2491487     2000           -0 
   16000    2.3275946     2000           -0 
   17000    2.4086661     2000           -0 
   18000    2.4919572     2000           -0 
   19000    2.5762331     2000           -0 
   20000    2.6629444     2000           -0 
Loop time of 2.66297 on 8 procs for 20000 steps with 2000 atoms

99.0% CPU use with 8 MPI tasks x no OpenMP threads

MPI task timing breakdown:
Section |  min time  |  avg time  |  max time  |%varavg| %total
---------------------------------------------------------------
Pair    | 0.023158   | 0.057508   | 0.13144    |  17.3 |  2.16
Neigh   | 0.0060174  | 0.011326   | 0.019875   |   4.8 |  0.43
Comm    | 0.16358    | 0.43575    | 0.659      |  33.0 | 16.36
Output  | 0.00087649 | 0.0016414  | 0.0021396  |   1.2 |  0.06
Modify  | 0.46882    | 0.8353     | 1.5736     |  46.9 | 31.37
Other   |            | 1.321      |            |       | 49.62

Nlocal:    250 ave 258 max 235 min
Histogram: 1 0 0 1 0 1 1 1 0 3
Nghost:    144.625 ave 204 max 95 min
Histogram: 1 1 1 2 0 1 0 0 0 2
Neighs:    206.375 ave 335 max 93 min
Histogram: 1 1 1 1 0 2 0 0 1 1

Total # of neighbors = 1651
Ave neighs/atom = 0.8255
Neighbor list builds = 69
Dangerous builds = 0
unfix 		ins
run		150000
Per MPI rank memory allocation (min/avg/max) = 12.07 | 12.17 | 12.33 Mbytes
Step CPU Atoms KinEng 
   20000            0     2000    6443.7665 
   21000   0.07001323     2000    6572.3531 
   22000   0.14053601     2000    6723.8376 
   23000    0.2146913     2000    6853.1812 
   24000   0.29009988     2000    6976.0209 
   25000    0.3700462     2000    7096.9955 
   26000    0.4524885     2000    7215.5795 
   27000    0.5415332     2000    7349.2382 
   28000   0.63093338     2000    7471.8719 
   29000   0.72140455     2000    7574.8228 
   30000   0.81861575     2000    7659.3836 
   31000   0.89135898     2000    7703.6856 
   32000   0.97155598     2000     7644.279 
   33000    1.0582276     2000    7526.6944 
   34000    1.1517106     2000    7370.0821 
   35000    1.2524007     2000    7193.0459 
   36000    1.3594146     2000    6990.9912 
   37000    1.4713043     2000     6849.286 
   38000    1.5862023     2000    6701.7548 
   39000    1.7089025     2000    6538.6915 
   40000     1.842193     2000    6382.3205 
   41000    1.9523851     2000    6216.4271 
   42000    2.0621789     2000    6091.2899 
   43000     2.176692     2000    5945.3221 
   44000    2.2955386     2000    5840.8561 
   45000    2.4189739     2000    5649.2613 
   46000    2.5459757     2000    5476.2101 
   47000    2.6754496     2000    5279.0518 
   48000     2.807006     2000    5125.1596 
   49000    2.9426583     2000    4975.1766 
   50000    3.0842875     2000    4874.2506 
   51000    3.2104223     2000    4704.8574 
   52000     3.342208     2000    4526.6175 
   53000     3.477854     2000    4413.7572 
   54000    3.6193292     2000     4239.929 
   55000    3.7634801     2000     4095.906 
   56000    3.9131812     2000    3911.9436 
   57000    4.0705399     2000    3736.6182 
   58000    4.2433338     2000    3553.7262 
   59000    4.4179905     2000    3294.3262 
   60000    4.5903215     2000    3061.9339 
   61000    4.7489576     2000    2863.6958 
   62000    4.9084377     2000    2649.8308 
   63000    5.0717899     2000    2411.7805 
   64000    5.2400307     2000    2122.9622 
   65000    5.4131445     2000    1867.1338 
   66000    5.5901621     2000    1614.0414 
   67000    5.7623549     2000    1401.6101 
   68000    5.9356695     2000    1152.7741 
   69000    6.1098686     2000    943.83847 
   70000    6.2906173     2000     763.6118 
   71000    6.4676864     2000    571.21462 
   72000     6.644171     2000    439.82961 
   73000    6.8213824     2000    348.66903 
   74000    6.9944189     2000    283.15529 
   75000    7.1687851     2000    233.83856 
   76000    7.3386338     2000    202.05104 
   77000     7.494554     2000    179.34577 
   78000    7.6467705     2000    152.90402 
   79000    7.8006291     2000    127.67287 
   80000     7.954372     2000    109.87645 
   81000    8.1073364     2000     92.37063 
   82000    8.2658807     2000    79.041064 
   83000    8.4377831     2000    70.672444 
   84000    8.6086409     2000    62.932969 
   85000    8.7799413     2000    55.002684 
   86000    8.9506325     2000    50.894759 
   87000    9.1208187     2000     46.78393 
   88000    9.2900453     2000    44.369025 
   89000    9.4601848     2000    42.076446 
   90000    9.6313194     2000     36.76465 
   91000    9.8014223     2000    30.723459 
   92000    9.9712825     2000    26.735297 
   93000    10.143668     2000     23.18052 
   94000    10.315663     2000    20.796951 
   95000    10.487107     2000    18.931982 
   96000    10.658791     2000    18.152992 
   97000    10.829923     2000    17.464433 
   98000     11.00213     2000    17.101711 
   99000    11.175493     2000    16.326779 
  100000    11.350971     2000    15.658112 
  101000     11.52754     2000    14.412022 
  102000    11.703956     2000    13.418614 
  103000     11.88035     2000    13.118478 
  104000    12.056378     2000    12.934441 
  105000    12.233793     2000    12.910575 
  106000    12.412006     2000    12.788354 
  107000    12.590151     2000    11.953342 
  108000    12.769096     2000    11.522427 
  109000    12.949844     2000    11.203278 
  110000    13.129836     2000    10.845196 
  111000    13.308659     2000     10.49999 
  112000     13.48876     2000    10.230099 
  113000     13.66819     2000    9.9896155 
  114000    13.848685     2000    9.9596829 
  115000    14.028689     2000    9.5711485 
  116000    14.208308     2000    8.5703488 
  117000    14.387932     2000    7.6782508 
  118000    14.567748     2000    6.9962732 
  119000    14.747184     2000    6.7960853 
  120000    14.928312     2000    6.7757913 
  121000    15.108006     2000    6.8713256 
  122000    15.287735     2000    6.9507842 
  123000    15.469201     2000    6.5381896 
  124000    15.649503     2000    6.1073542 
  125000    15.830442     2000    5.9302611 
  126000    16.010531     2000    5.6774287 
  127000    16.190279     2000    5.4841307 
  128000    16.370763     2000     5.308158 
  129000    16.551756     2000    5.0296241 
  130000    16.732828     2000    5.0753758 
  131000    16.912959     2000    4.9084454 
  132000    17.092766     2000    5.0181493 
  133000    17.273075     2000    5.0144851 
  134000    17.454676     2000    5.2402968 
  135000     17.63514     2000    5.4117228 
  136000     17.81561     2000     5.597034 
  137000    17.997892     2000    5.7408442 
  138000    18.178826     2000     5.986288 
  139000    18.359733     2000    6.2637254 
  140000    18.541003     2000    6.0815744 
  141000    18.721428     2000    6.2106703 
  142000    18.902923     2000    5.7010462 
  143000    19.083804     2000    5.7724596 
  144000     19.26404     2000    5.6791588 
  145000    19.443936     2000    5.6776291 
  146000    19.626544     2000    5.4366959 
  147000    19.806958     2000    5.3188256 
  148000    19.988016     2000    5.2223042 
  149000    20.168329     2000    4.9639803 
  150000    20.350348     2000    4.9127362 
  151000    20.530806     2000    4.9455535 
  152000    20.712254     2000    5.0718084 
  153000    20.892693     2000    5.0725859 
  154000    21.074021     2000    4.8574869 
  155000    21.255609     2000    4.9993556 
  156000     21.43629     2000    5.1208356 
  157000     21.61754     2000    5.1538246 
  158000    21.798826     2000     5.334476 
  159000    21.979204     2000    5.0405044 
  160000    22.161609     2000    5.1974211 
  161000    22.342638     2000    5.3102067 
  162000     22.52448     2000    5.4193173 
  163000    22.705708     2000    5.5280619 
  164000    22.886149     2000     5.551172 
  165000    23.067756     2000    5.6539321 
  166000    23.249352     2000     5.341227 
  167000    23.430791     2000    4.9063519 
  168000    23.612827     2000    4.2661388 
  169000    23.794036     2000     3.945959 
  170000    23.975334     2000    3.8482592 
Loop time of 23.9754 on 8 procs for 150000 steps with 2000 atoms

97.8% CPU use with 8 MPI tasks x no OpenMP threads

MPI task timing breakdown:
Section |  min time  |  avg time  |  max time  |%varavg| %total
---------------------------------------------------------------
Pair    | 3.3254     | 5.5123     | 7.3509     |  51.0 | 22.99
Neigh   | 0.088874   | 0.13634    | 0.16795    |   7.4 |  0.57
Comm    | 7.275      | 7.8862     | 8.3914     |  11.4 | 32.89
Output  | 0.0035477  | 0.0076822  | 0.012226   |   2.8 |  0.03
Modify  | 4.7827     | 6.1587     | 7.066      |  26.5 | 25.69
Other   |            | 4.274      |            |       | 17.83

Nlocal:    250 ave 260 max 236 min
Histogram: 1 0 0 1 1 2 0 0 1 2
Nghost:    426 ave 580 max 330 min
Histogram: 4 0 0 0 1 1 0 0 0 2
Neighs:    2409.38 ave 2878 max 2034 min
Histogram: 1 3 0 0 0 1 1 0 1 1

Total # of neighbors = 19275
Ave neighs/atom = 9.6375
Neighbor list builds = 401
Dangerous builds = 0

# remove "plug" - need to redefine cylinder region & union

region	  	cylreg delete
region		hopreg delete
region	    	cylreg cylinder z ${xc} ${yc} ${radconelo} 		${zcyllo} ${zconelo} side in units box 		open 1 open 2 #Bottom & top are open
region	    	cylreg cylinder z 25 ${yc} ${radconelo} 		${zcyllo} ${zconelo} side in units box 		open 1 open 2 
region	    	cylreg cylinder z 25 25 ${radconelo} 		${zcyllo} ${zconelo} side in units box 		open 1 open 2 
region	    	cylreg cylinder z 25 25 2 		${zcyllo} ${zconelo} side in units box 		open 1 open 2 
region	    	cylreg cylinder z 25 25 2 		0 ${zconelo} side in units box 		open 1 open 2 
region	    	cylreg cylinder z 25 25 2 		0 10 side in units box 		open 1 open 2 

region		hopreg union 2 cylreg conereg

unfix		hopper3
fix		hopper3 all wall/gran/region hertz/history 		${kn} ${kt} ${gamma_n} ${gamma_t} ${coeffFric} 1 region hopreg
fix		hopper3 all wall/gran/region hertz/history 		72592.5925925926 ${kt} ${gamma_n} ${gamma_t} ${coeffFric} 1 region hopreg
fix		hopper3 all wall/gran/region hertz/history 		72592.5925925926 90740.7407407408 ${gamma_n} ${gamma_t} ${coeffFric} 1 region hopreg
fix		hopper3 all wall/gran/region hertz/history 		72592.5925925926 90740.7407407408 903.503751814138 ${gamma_t} ${coeffFric} 1 region hopreg
fix		hopper3 all wall/gran/region hertz/history 		72592.5925925926 90740.7407407408 903.503751814138 451.751875907069 ${coeffFric} 1 region hopreg
fix		hopper3 all wall/gran/region hertz/history 		72592.5925925926 90740.7407407408 903.503751814138 451.751875907069 0.5 1 region hopreg

run		100000
Per MPI rank memory allocation (min/avg/max) = 13.37 | 14.15 | 14.87 Mbytes
Step CPU Atoms KinEng 
  170000            0     2000    3.8482592 
  171000   0.18197329     2000    4.2860625 
  172000   0.36409005     2000    5.3850325 
  173000   0.54674236     2000    7.0695584 
  174000   0.73118486     2000    9.3173791 
  175000   0.91477693     2000    12.606349 
  176000    1.0979957     2000    16.709393 
  177000    1.2801642     2000    21.496492 
  178000    1.4613905     2000    27.572488 
  179000    1.6422125     2000    34.132641 
  180000    1.8227517     2000    41.568678 
  181000     2.000158     2000    48.916362 
  182000    2.1734004     2000    57.576041 
  183000    2.3434566     2000    67.123993 
  184000    2.5142386     2000    77.487622 
  185000    2.6839643     2000    88.555418 
  186000    2.8532509     2000    100.01521 
  187000    3.0219754     2000    111.46113 
  188000    3.1884706     2000    123.88891 
  189000     3.355125     2000    137.48462 
  190000    3.5222166     2000    151.87275 
  191000    3.6886037     2000    166.34413 
  192000    3.8548782     2000    182.33078 
  193000    4.0206275     2000    197.85674 
  194000    4.1874234     2000    214.08624 
  195000    4.3545093     2000    231.12962 
  196000    4.5200897     2000    249.29832 
  197000    4.6871966     2000    268.54501 
  198000    4.8536892     2000     288.7399 
  199000    5.0203388     2000    309.60167 
  200000    5.1869993     2000    331.26309 
  201000     5.352695     2000     354.5913 
  202000    5.5187596     2000    377.23359 
  203000    5.6831813     2000    401.90752 
  204000    5.8476773     2000    428.31686 
  205000    6.0125774     2000    455.92869 
  206000    6.1774633     2000    483.97305 
  207000    6.3420729     2000     512.5623 
  208000    6.5061341     2000     541.7321 
  209000    6.6688617     2000    572.68549 
  210000    6.8393765     2000    605.98297 
  211000    7.0077049     2000    640.42535 
  212000    7.1742035     2000    675.50154 
  213000    7.3398011     2000    712.47775 
  214000    7.5058919     2000     750.7756 
  215000    7.6708534     2000    789.90412 
  216000    7.8335898     2000    830.08874 
  217000    7.9970434     2000    871.71148 
  218000    8.1607373     2000    915.56497 
  219000     8.324002     2000    961.09925 
  220000    8.4905674     2000    1008.0328 
  221000    8.6519525     2000    1056.6663 
  222000    8.8132307     2000    1105.5177 
  223000    8.9735975     2000    1154.9986 
  224000    9.1343407     2000    1205.9908 
  225000    9.2968217     2000    1256.0582 
  226000    9.4612414     2000    1307.4424 
  227000    9.6276805     1995    1340.3135 
  228000    9.7964718     1991    1368.6435 
  229000    9.9661619     1987    1398.6816 
  230000    10.137404     1971    1374.2056 
  231000    10.305418     1966    1398.1798 
  232000    10.471372     1954    1402.5658 
  233000    10.635288     1941    1393.0293 
  234000    10.798033     1929    1371.6173 
  235000    10.961492     1913    1319.1918 
  236000    11.128196     1904    1317.0272 
  237000    11.295271     1894    1299.8067 
  238000    11.462432     1884     1292.401 
  239000    11.626655     1876    1283.3434 
  240000     11.79127     1862    1243.5498 
  241000    11.952349     1848    1212.2907 
  242000    12.116076     1834     1168.257 
  243000    12.280703     1824    1137.2518 
  244000    12.444517     1812     1115.066 
  245000    12.608574     1804    1101.8067 
  246000    12.771791     1792    1066.7825 
  247000    12.935707     1781    1028.6818 
  248000    13.099658     1769    958.55719 
  249000    13.264337     1761    944.19916 
  250000    13.429649     1747    879.96629 
  251000    13.581465     1737    850.16234 
  252000    13.731872     1727    813.68507 
  253000     13.88303     1716    760.09891 
  254000    14.033691     1706    690.22242 
  255000    14.184816     1696    657.47814 
  256000    14.337343     1692    664.46234 
  257000    14.489666     1686    632.65602 
  258000    14.641485     1680    619.89265 
  259000    14.795067     1678    623.48708 
  260000    14.949368     1672    591.16443 
  261000    15.100319     1670    605.06438 
  262000    15.251273     1670    628.93436 
  263000    15.403228     1666    617.56476 
  264000    15.553757     1662    619.92933 
  265000    15.704119     1658    614.70631 
  266000    15.855216     1654    620.49957 
  267000    16.007634     1653    635.02646 
  268000    16.161893     1651    647.94656 
  269000    16.315039     1649    654.05292 
  270000     16.46952     1647    664.53526 
Loop time of 16.4695 on 8 procs for 100000 steps with 1647 atoms

97.5% CPU use with 8 MPI tasks x no OpenMP threads

MPI task timing breakdown:
Section |  min time  |  avg time  |  max time  |%varavg| %total
---------------------------------------------------------------
Pair    | 1.6028     | 3.8385     | 5.1569     |  68.2 | 23.31
Neigh   | 0.078215   | 0.098425   | 0.11551    |   4.0 |  0.60
Comm    | 5.4955     | 5.9415     | 6.2652     |  10.5 | 36.08
Output  | 0.0020244  | 0.0046998  | 0.010066   |   4.2 |  0.03
Modify  | 3.1095     | 3.9647     | 4.748      |  26.5 | 24.07
Other   |            | 2.622      |            |       | 15.92

Nlocal:    205.875 ave 225 max 175 min
Histogram: 1 0 0 1 1 0 1 1 1 2
Nghost:    370.75 ave 520 max 262 min
Histogram: 2 2 0 0 1 0 1 0 0 2
Neighs:    1811.88 ave 2386 max 981 min
Histogram: 1 1 0 0 1 1 0 0 2 2

Total # of neighbors = 14495
Ave neighs/atom = 8.80085
Neighbor list builds = 246
Dangerous builds = 0
Total wall time: 0:00:43
