LAMMPS (30 Oct 2019)
# pouring spheres into container box

units		lj
atom_style      sphere
boundary        f f f
dimension	3
comm_modify     vel yes

region          box block -10 10 -10 10 -10 10 units box
create_box      2 box
Created orthogonal box = (-10 -10 -10) to (10 10 10)
  2 by 2 by 2 MPI processor grid

pair_style	hybrid gran/hooke 4000.0 NULL 100.0 NULL 0.5 1
pair_coeff	* * gran/hooke

region          container block -6 6 -6 6 -6 6 units box
fix		container all wall/gran/region hooke/history 		4000.0 NULL 100.0 NULL 0.5 1 region container

neighbor	0.3 bin
neigh_modify	delay 0 every 1 check yes

fix             2 all nve/sphere
fix		3 all gravity 1.0 vector 0 0 -1

region          slab block -2 2 -2 2 -2 2 units box
fix             ins all pour 100 2 4767548 vol 0.4 10 	        diam one 1.0 region slab ignore
Particle insertion: 48 every 566 steps, 100 by step 1133

timestep	0.005

compute         1 all temp
compute_modify  1 dynamic/dof yes

compute         2 all temp/sphere
compute_modify  2 dynamic/dof yes

thermo		100
thermo_style	custom step atoms temp c_1 c_2 press
thermo_modify   lost ignore
compute_modify  thermo_temp dynamic/dof yes

#dump		2 all image 100 image.*.jpg type type #		zoom 1.4 adiam 1.0 box no 0.0 axes yes 0.9 0.03
#dump_modify	2 pad 5

run	        5000
Neighbor list info ...
  update every 1 steps, delay 0 steps, check yes
  max neighbors/atom: 2000, page size: 100000
  master list distance cutoff = 1.3
  ghost atom cutoff = 1.3
  binsize = 0.65, bins = 31 31 31
  1 neighbor lists, perpetual/occasional/extra = 1 0 0
  (1) pair gran/hooke, perpetual
      attributes: half, newton on, size
      pair build: half/size/bin/newton
      stencil: half/bin/3d/newton
      bin: standard
Per MPI rank memory allocation (min/avg/max) = 0.4669 | 0.4669 | 0.4669 Mbytes
Step Atoms Temp c_1 c_2 Press 
       0        0            0            0            0            0 
     100       30     0.803783     0.803783   0.39507978 0.0029137134 
     200       30    1.1967995    1.1967995    0.5882574 0.0043383984 
     300       30    1.2814686    1.2814686   0.62987441 0.0046453238 
     400       30   0.82043046   0.82043046   0.41050731 0.0029740604 
     500       30   0.76864192   0.76864192   0.38816336 0.0044954338 
     600       64   0.50841254   0.50841254   0.26231777 0.0068620331 
     700       64   0.57312354   0.57312354    0.2951111 0.0045133479 
     800       64   0.61999479   0.61999479   0.32020689 0.0055941605 
     900       64   0.50706975   0.50706975   0.27509238 0.0049740422 
    1000       64   0.44769017   0.44769017   0.24740753 0.0061199917 
    1100       64   0.46844082   0.46844082   0.25873583  0.012044524 
    1200       99   0.44186391   0.44186391   0.24318944 0.0093892395 
    1300       99   0.40702018   0.40702018   0.22265402 0.0095541679 
    1400       99   0.37891717   0.37891717   0.21347799 0.0085409092 
    1500       99   0.35363858   0.35363858   0.19918786 0.0094822923 
    1600       99   0.26581207   0.26581207   0.15443602 0.0045091905 
    1700      100   0.22134602   0.22134602   0.13025386 0.0033871429 
    1800      100   0.11363577   0.11363577  0.073811338 0.0056342999 
    1900      100  0.067533285  0.067533285  0.049248585 0.00097764888 
    2000      100  0.059761484  0.059761484  0.041501501 0.0018001981 
    2100      100  0.057562124  0.057562124  0.038357119 0.0011981939 
    2200      100  0.048538199  0.048538199  0.031314265 0.00091678101 
    2300      100  0.028176493  0.028176493  0.021009795 0.00040246974 
    2400      100  0.018518215  0.018518215  0.015270131 0.00041221098 
    2500      100  0.019024177  0.019024177  0.014532205 0.0010442125 
    2600      100 0.0099273151 0.0099273151   0.00803256 0.0002000179 
    2700      100  0.009044347  0.009044347 0.0072075715 0.00016977791 
    2800      100 0.0066922818 0.0066922818 0.0056628215 0.00012104337 
    2900      100 0.0060752871 0.0060752871 0.0051392337 0.00043456597 
    3000      100 0.0050769587 0.0050769587 0.0043415682 0.0002609174 
    3100      100 0.0035740003 0.0035740003 0.0030131909 0.00020457684 
    3200      100  0.003297257  0.003297257 0.0028133429 0.00038531099 
    3300      100 0.0026249938 0.0026249938 0.0023309787 0.00011408205 
    3400      100 0.0023624887 0.0023624887 0.0020930374 0.00036657893 
    3500      100   0.00211455   0.00211455 0.0018447422 0.00039139846 
    3600      100 0.0014529324 0.0014529324 0.0013372313 5.6923374e-05 
    3700      100 0.0013633721 0.0013633721 0.0012230041 7.1309597e-05 
    3800      100 0.0011150414 0.0011150414  0.001050507 8.4760596e-05 
    3900      100 0.0010657401 0.0010657401 0.0010081078  5.91455e-05 
    4000      100 0.00095783172 0.00095783172 0.0009211028 7.6198145e-05 
    4100      100 0.00067478481 0.00067478481 0.00068995523 0.00010922939 
    4200      100 0.00062180637 0.00062180637 0.00060957712 6.0460361e-05 
    4300      100 0.00041803816 0.00041803816 0.00043334909 0.00011516779 
    4400      100 0.00037220422 0.00037220422 0.00039293464 0.00011765236 
    4500      100 0.00030477121 0.00030477121 0.00031543995 6.2504128e-05 
    4600      100 0.00027319539 0.00027319539 0.00027748635 9.0535448e-05 
    4700      100 0.00026327832 0.00026327832 0.00026901704 6.2497681e-05 
    4800      100 0.00025648176 0.00025648176 0.0002630407 7.0346294e-05 
    4900      100 0.00025765357 0.00025765357 0.0002637821 7.3008776e-05 
    5000      100 0.00026843299 0.00026843299 0.00027166161 6.9052496e-05 
Loop time of 0.124001 on 8 procs for 5000 steps with 100 atoms

Performance: 17419177.195 tau/day, 40322.169 timesteps/s
96.2% CPU use with 8 MPI tasks x no OpenMP threads

MPI task timing breakdown:
Section |  min time  |  avg time  |  max time  |%varavg| %total
---------------------------------------------------------------
Pair    | 0.0027339  | 0.005085   | 0.010186   |   3.4 |  4.10
Neigh   | 0.0036583  | 0.0048786  | 0.0063837  |   1.7 |  3.93
Comm    | 0.021111   | 0.036335   | 0.055465   |   7.6 | 29.30
Output  | 0.0023274  | 0.0027512  | 0.0034306  |   0.7 |  2.22
Modify  | 0.0047839  | 0.017236   | 0.032955   |   9.4 | 13.90
Other   |            | 0.05772    |            |       | 46.54

Nlocal:    12.5 ave 29 max 0 min
Histogram: 4 0 0 0 0 0 0 2 1 1
Nghost:    4.625 ave 11 max 0 min
Histogram: 4 0 0 0 0 0 0 1 2 1
Neighs:    20 ave 54 max 0 min
Histogram: 4 0 0 0 0 0 2 1 0 1

Total # of neighbors = 160
Ave neighs/atom = 1.6
Neighbor list builds = 273
Dangerous builds = 0

region          container delete
variable        theta equal (step-5000)*(4.0*PI/5000)
region          container block -6 6 -6 6 -6 6 units box                 rotate v_theta 0 0 0 0 0 1
run	        5000
Per MPI rank memory allocation (min/avg/max) = 5.592 | 5.654 | 5.717 Mbytes
Step Atoms Temp c_1 c_2 Press 
    5000      100 0.00026843299 0.00026843299 0.00027166161 6.9717597e-05 
    5100      100   0.68821731   0.68821731   0.36767002 0.0094932196 
    5200      100   0.75912247   0.75912247   0.40715095  0.010968519 
    5300      100   0.82128401   0.82128401   0.43013847  0.011415324 
    5400      100   0.86760723   0.86760723   0.44864353  0.012303459 
    5500      100   0.91270234   0.91270234    0.4690072  0.015407621 
    5600      100   0.95908085   0.95908085   0.49131306  0.014202728 
    5700      100    1.0147543    1.0147543     0.517961  0.013661968 
    5800      100    1.0747556    1.0747556   0.54602833  0.017410351 
    5900      100    1.1056278    1.1056278   0.56111575   0.01881408 
    6000      100    1.1319937    1.1319937   0.57323176  0.016543197 
    6100      100     1.164445     1.164445   0.58951363  0.018483531 
    6200      100     1.194308     1.194308    0.6041375  0.020314029 
    6300      100    1.2502107    1.2502107   0.62964877  0.019991285 
    6400      100    1.2797276    1.2797276   0.64321175  0.020936271 
    6500      100    1.2832187    1.2832187   0.64333695  0.020979761 
    6600      100    1.2956179    1.2956179   0.64863628  0.022755136 
    6700      100    1.3230542    1.3230542   0.66148851  0.022780013 
    6800      100    1.3364658    1.3364658   0.66846932   0.02110945 
    6900      100    1.3459652    1.3459652     0.673285  0.021544195 
    7000      100    1.3446369    1.3446369   0.67225002  0.021924943 
    7100      100     1.335941     1.335941   0.66799457  0.023268679 
    7200      100    1.3335041    1.3335041   0.66646839  0.021743127 
    7300      100    1.3329428    1.3329428    0.6660833   0.02255733 
    7400      100    1.3423855    1.3423855   0.67054937  0.022361368 
    7500      100     1.342725     1.342725   0.67060471  0.023570589 
    7600      100    1.3437092    1.3437092   0.67099532  0.024180858 
    7700      100    1.3434379    1.3434379   0.67071114   0.02296611 
    7800      100    1.3435935    1.3435935   0.67077486  0.022999228 
    7900      100    1.3433998    1.3433998   0.67076013  0.022980271 
    8000      100     1.344954     1.344954   0.67164333  0.022930079 
    8100      100    1.3433506    1.3433506    0.6708561  0.022640302 
    8200      100    1.3427952    1.3427952     0.670629  0.022914241 
    8300      100    1.3440805    1.3440805   0.67130952    0.0228753 
    8400      100    1.3447646    1.3447646   0.67148764  0.022811515 
    8500      100     1.344944     1.344944   0.67149749  0.022828165 
    8600      100    1.3451688    1.3451688   0.67158751  0.022836078 
    8700      100    1.3454249    1.3454249   0.67170556   0.02285397 
    8800      100     1.345609     1.345609   0.67179646  0.022890531 
    8900      100    1.3457689    1.3457689   0.67187831   0.02290967 
    9000      100    1.3458665    1.3458665   0.67193433  0.022927727 
    9100      100    1.3461003    1.3461003   0.67205939  0.022954781 
    9200      100    1.3476638    1.3476638   0.67285888   0.02318279 
    9300      100     1.347453     1.347453   0.67294212  0.023008491 
    9400      100    1.3509289    1.3509289   0.67446448  0.023048616 
    9500      100      1.35199      1.35199   0.67500161   0.02303526 
    9600      100     1.353292     1.353292    0.6756542  0.023653043 
    9700      100    1.3551612    1.3551612    0.6766846  0.023371538 
    9800      100    1.3537449    1.3537449   0.67590943  0.023354535 
    9900      100    1.3534258    1.3534258   0.67584482  0.024465026 
   10000      100     1.353746     1.353746    0.6759202  0.023530837 
Loop time of 0.236162 on 8 procs for 5000 steps with 100 atoms

Performance: 9146245.272 tau/day, 21171.864 timesteps/s
97.1% CPU use with 8 MPI tasks x no OpenMP threads

MPI task timing breakdown:
Section |  min time  |  avg time  |  max time  |%varavg| %total
---------------------------------------------------------------
Pair    | 0.0021591  | 0.010516   | 0.018885   |   7.2 |  4.45
Neigh   | 0.0041389  | 0.0091842  | 0.01464    |   3.1 |  3.89
Comm    | 0.015261   | 0.042072   | 0.0718     |  12.8 | 17.81
Output  | 0.0026155  | 0.0035417  | 0.0042942  |   1.2 |  1.50
Modify  | 0.011007   | 0.047242   | 0.095433   |  14.7 | 20.00
Other   |            | 0.1236     |            |       | 52.34

Nlocal:    12.5 ave 28 max 0 min
Histogram: 4 0 0 0 0 0 0 1 0 3
Nghost:    3.375 ave 7 max 0 min
Histogram: 4 0 0 0 0 0 0 0 1 3
Neighs:    23.375 ave 59 max 0 min
Histogram: 4 0 0 0 1 0 0 1 0 2

Total # of neighbors = 187
Ave neighs/atom = 1.87
Neighbor list builds = 629
Dangerous builds = 0

region          container delete
region          container block -6 6 -6 6 -6 6 units box
run             5000
Per MPI rank memory allocation (min/avg/max) = 5.592 | 5.654 | 5.717 Mbytes
Step Atoms Temp c_1 c_2 Press 
   10000      100     1.353746     1.353746    0.6759202  0.023599219 
   10100      100   0.38909905   0.38909905   0.21688418 0.0053541698 
   10200      100    0.2438195    0.2438195   0.14752772 0.0030147062 
   10300      100   0.16240348   0.16240348   0.11015089  0.002273525 
   10400      100  0.091451771  0.091451771  0.066309571 0.0029031302 
   10500      100  0.057755315  0.057755315  0.044445689 0.0012783496 
   10600      100  0.039833243  0.039833243  0.030859452 0.0014128034 
   10700      100  0.032945152  0.032945152  0.025855936 0.00052724332 
   10800      100   0.02791553   0.02791553  0.021900466 0.00035774299 
   10900      100  0.021803867  0.021803867  0.017259492 0.00041281366 
   11000      100  0.019113344  0.019113344  0.015027201 0.00050617146 
   11100      100  0.017861955  0.017861955  0.014022641 0.00028733958 
   11200      100  0.016841554  0.016841554  0.013103406 0.00024930594 
   11300      100  0.014645272  0.014645272  0.011498075 0.00027587546 
   11400      100  0.012877899  0.012877899  0.010156963 0.0001811036 
   11500      100  0.010584961  0.010584961 0.0084055118 0.00014999777 
   11600      100 0.0096137222 0.0096137222 0.0076934021 0.00018419026 
   11700      100 0.0091805059 0.0091805059 0.0073589422 0.00013615735 
   11800      100 0.0078406761 0.0078406761 0.0063680812 0.00045521663 
   11900      100 0.0068935553 0.0068935553 0.0056452474 0.00016586974 
   12000      100 0.0063614918 0.0063614918 0.0051657852 0.00035131772 
   12100      100 0.0058033313 0.0058033313 0.0047005347 0.00010819055 
   12200      100 0.0050038092 0.0050038092 0.0040519711 0.00012205079 
   12300      100 0.0045204456 0.0045204456 0.0036217935 0.0001096292 
   12400      100 0.0035878313 0.0035878313 0.0029245167 8.5687861e-05 
   12500      100 0.0031934833 0.0031934833 0.0025573257 9.0754148e-05 
   12600      100 0.0029781765 0.0029781765 0.0023737482 0.00011171399 
   12700      100 0.0027426582 0.0027426582 0.0021746077 5.5773757e-05 
   12800      100 0.0025411483 0.0025411483 0.0020165594 7.0706028e-05 
   12900      100 0.0021138259 0.0021138259 0.0017003584 0.00019506394 
   13000      100 0.0019194651 0.0019194651 0.0015612419 6.8790848e-05 
   13100      100 0.0018805822 0.0018805822 0.0015242059 4.768967e-05 
   13200      100  0.001759242  0.001759242 0.0014289095 8.3753624e-05 
   13300      100 0.0015613326 0.0015613326 0.0012985732 4.5955524e-05 
   13400      100 0.0012639955 0.0012639955 0.0010595185 0.00021096286 
   13500      100 0.0012388853 0.0012388853 0.0010279259 3.7333025e-05 
   13600      100 0.0011903698 0.0011903698 0.00097950319 5.3820435e-05 
   13700      100 0.0010251783 0.0010251783 0.00084476248 3.3431944e-05 
   13800      100 0.00091555357 0.00091555357 0.00075585072 7.4468702e-05 
   13900      100 0.0008914559 0.0008914559 0.00073996856 3.275577e-05 
   14000      100 0.00087507725 0.00087507725 0.00072608634 3.2551254e-05 
   14100      100 0.00087393675 0.00087393675 0.00072529421 3.2535135e-05 
   14200      100 0.00085428493 0.00085428493 0.00070511779 0.0001333165 
   14300      100 0.00078081093 0.00078081093 0.00064666294 3.7983653e-05 
   14400      100 0.00075295516 0.00075295516 0.00062581116 4.1595678e-05 
   14500      100 0.00075217324 0.00075217324 0.00062321964 3.0880564e-05 
   14600      100 0.00074987059 0.00074987059 0.0006167851 3.9125733e-05 
   14700      100 0.00072170884 0.00072170884 0.00059620004 5.5718919e-05 
   14800      100 0.00069811747 0.00069811747 0.00058371389 2.8235749e-05 
   14900      100 0.00082661509 0.00082661509 0.00066758681 2.3666291e-05 
   15000      100 0.00055626324 0.00055626324 0.00049156665 4.3771662e-05 
Loop time of 0.106107 on 8 procs for 5000 steps with 100 atoms

Performance: 20356770.277 tau/day, 47122.153 timesteps/s
97.3% CPU use with 8 MPI tasks x no OpenMP threads

MPI task timing breakdown:
Section |  min time  |  avg time  |  max time  |%varavg| %total
---------------------------------------------------------------
Pair    | 0.0021062  | 0.0034963  | 0.0053067  |   1.9 |  3.30
Neigh   | 0.00063872 | 0.0012612  | 0.0018196  |   1.0 |  1.19
Comm    | 0.003897   | 0.024044   | 0.044682   |  12.6 | 22.66
Output  | 0.0024784  | 0.002855   | 0.00319    |   0.6 |  2.69
Modify  | 0.0016277  | 0.013629   | 0.028248   |  10.1 | 12.84
Other   |            | 0.06082    |            |       | 57.32

Nlocal:    12.5 ave 28 max 0 min
Histogram: 4 0 0 0 0 0 0 1 2 1
Nghost:    4 ave 10 max 0 min
Histogram: 4 0 0 0 0 0 0 2 1 1
Neighs:    20.125 ave 55 max 0 min
Histogram: 4 0 0 0 0 1 1 1 0 1

Total # of neighbors = 161
Ave neighs/atom = 1.61
Neighbor list builds = 96
Dangerous builds = 0

region          container delete
variable        theta equal (step-15000)*(4.0*PI/5000)
region          container block -6 6 -6 6 -6 6 units box                 rotate v_theta 0 0 0 1 1 1
run	        5000
Per MPI rank memory allocation (min/avg/max) = 5.592 | 5.654 | 5.717 Mbytes
Step Atoms Temp c_1 c_2 Press 
   15000      100 0.00055626324 0.00055626324 0.00049156665 3.9712153e-05 
   15100      100    1.1305044    1.1305044   0.72240603  0.017402589 
   15200      100    1.1340011    1.1340011   0.72837218  0.014035904 
   15300      100    1.2022625    1.2022625   0.78597472  0.018842731 
   15400      100    1.3255384    1.3255384   0.87433219  0.018310509 
   15500      100    1.4838697    1.4838697   0.95854607   0.02104846 
   15600      100     1.752487     1.752487    1.0830295  0.027107693 
   15700      100    1.9747511    1.9747511    1.1519885   0.03024629 
   15800      100    2.1148553    2.1148553    1.2020193  0.031297965 
   15900      100    2.1405282    2.1405282    1.2089118   0.02858949 
   16000      100    2.0778302    2.0778302    1.1782056  0.031695971 
   16100      100    2.3183951    2.3183951    1.2763782   0.03370819 
   16200      100    2.3904277    2.3904277     1.315194  0.036835599 
   16300      100    2.4461057    2.4461057    1.3412066  0.032150412 
   16400      100    2.5158386    2.5158386    1.3641459  0.041434338 
   16500      100    2.7517933    2.7517933    1.4715489  0.034771342 
   16600      100    2.9498345    2.9498345    1.5803576  0.037045352 
   16700      100    3.0661065    3.0661065    1.6390609  0.042365336 
   16800      100    3.0812342    3.0812342     1.648871  0.039343406 
   16900      100    2.9544611    2.9544611    1.5915393  0.045485618 
   17000      100    3.2484949    3.2484949    1.7439589   0.04408025 
   17100      100    3.3141442    3.3141442    1.7802679  0.045283595 
   17200      100    3.4072056    3.4072056    1.8261654  0.043644171 
   17300      100    3.3322401    3.3322401    1.7994384  0.045066027 
   17400      100    3.3846507    3.3846507    1.8043958  0.053152537 
   17500      100    3.2877328    3.2877328    1.7734279  0.049297782 
   17600      100    3.2520587    3.2520587    1.7468635  0.057773931 
   17700      100    3.2583854    3.2583854     1.774149  0.042808082 
   17800      100    3.1336704    3.1336704    1.7158828  0.056715344 
   17900      100    3.0845001    3.0845001    1.7030492  0.041864091 
   18000      100    3.0025051    3.0025051    1.6601452  0.042664756 
   18100      100    3.0214998    3.0214998    1.6762051   0.03924384 
   18200      100    3.1473441    3.1473441    1.7393722  0.042516322 
   18300      100    3.3474983    3.3474983    1.8298075  0.042422807 
   18400      100    3.3110684    3.3110684    1.7954233  0.047581919 
   18500      100    3.7137333    3.7137333    1.9857681  0.048904075 
   18600      100    3.7465781    3.7465781     2.010453  0.055651343 
   18700      100    3.8020791    3.8020791    2.0495206  0.055125862 
   18800      100    3.8621361    3.8621361    2.0826218  0.048792853 
   18900      100     3.797114     3.797114    2.0497177  0.053981899 
   19000      100    3.6820902    3.6820902    1.9828071  0.049930177 
   19100      100    3.9971166    3.9971166    2.1423197  0.055402103 
   19200      100     3.906745     3.906745    2.1171554  0.064036393 
   19300      100    3.7889295    3.7889295    2.0675295  0.048976641 
   19400      100    3.9278401    3.9278401    2.1278134  0.057490547 
   19500      100    3.5512234    3.5512234    1.9574298  0.049828779 
   19600      100    3.6428008    3.6428008    2.0027482  0.047727326 
   19700      100     3.692277     3.692277    2.0161682  0.058201574 
   19800      100    3.5571765    3.5571765    1.9672491  0.046998564 
   19900      100    3.5730492    3.5730492    1.9782146  0.047116595 
   20000      100    3.6831558    3.6831558    2.0337185  0.047060108 
Loop time of 0.177252 on 8 procs for 5000 steps with 100 atoms

Performance: 12186046.731 tau/day, 28208.442 timesteps/s
98.1% CPU use with 8 MPI tasks x no OpenMP threads

MPI task timing breakdown:
Section |  min time  |  avg time  |  max time  |%varavg| %total
---------------------------------------------------------------
Pair    | 0.0021541  | 0.0043252  | 0.0065362  |   1.7 |  2.44
Neigh   | 0.0059922  | 0.010208   | 0.013011   |   1.9 |  5.76
Comm    | 0.015374   | 0.05168    | 0.06494    |   6.4 | 29.16
Output  | 0.0026212  | 0.0029625  | 0.0035951  |   0.5 |  1.67
Modify  | 0.011101   | 0.033261   | 0.046717   |   5.3 | 18.76
Other   |            | 0.07482    |            |       | 42.21

Nlocal:    12.5 ave 28 max 0 min
Histogram: 2 1 0 2 0 0 0 1 1 1
Nghost:    3.25 ave 7 max 0 min
Histogram: 2 1 0 0 1 2 0 0 0 2
Neighs:    16.875 ave 40 max 0 min
Histogram: 3 0 1 1 0 0 0 0 1 2

Total # of neighbors = 135
Ave neighs/atom = 1.35
Neighbor list builds = 914
Dangerous builds = 0

region          container delete
region          container block -6 6 -6 6 -6 6 units box
run             5000
Per MPI rank memory allocation (min/avg/max) = 5.592 | 5.701 | 5.717 Mbytes
Step Atoms Temp c_1 c_2 Press 
   20000      100    3.6831558    3.6831558    2.0337185  0.046875356 
   20100      100    1.0847244    1.0847244   0.69671478  0.013552622 
   20200      100   0.99096774   0.99096774   0.63402253  0.012555982 
   20300      100   0.95211273   0.95211273   0.60698689  0.011782395 
   20400      100   0.93262322   0.93262322   0.57872569  0.013544412 
   20500      100   0.91133445   0.91133445   0.55781034   0.01214993 
   20600      100   0.93336013   0.93336013   0.54703636  0.018171251 
   20700      100   0.95053781   0.95053781   0.54759648  0.015427192 
   20800      100   0.96164733   0.96164733   0.55406101  0.014358945 
   20900      100   0.82615714   0.82615714   0.47297995  0.011172656 
   21000      100   0.42529192   0.42529192    0.2622155 0.0086295544 
   21100      100   0.26634157   0.26634157   0.16882717 0.0056959812 
   21200      100   0.16667131   0.16667131    0.1129953 0.0038242659 
   21300      100   0.13118649   0.13118649   0.08996853 0.0018013938 
   21400      100   0.13906087   0.13906087  0.091574075 0.0026682214 
   21500      100  0.083845764  0.083845764  0.059507025 0.0027601688 
   21600      100  0.054475577  0.054475577  0.042807038 0.0017694724 
   21700      100  0.044561312  0.044561312  0.035057135 0.0011172189 
   21800      100  0.038673184  0.038673184  0.031492162 0.00067000689 
   21900      100  0.034717971  0.034717971  0.028257187 0.00051379162 
   22000      100  0.031259582  0.031259582  0.025803521 0.00084332718 
   22100      100  0.023407037  0.023407037  0.020564218 0.00063297556 
   22200      100  0.023063758  0.023063758  0.018798347 0.0016767211 
   22300      100  0.018351291  0.018351291  0.014861833 0.0012641511 
   22400      100  0.018559794  0.018559794   0.01410253 0.00055757851 
   22500      100  0.013915375  0.013915375  0.011049872 0.00041056817 
   22600      100  0.011665881  0.011665881 0.0093051944 0.00039466084 
   22700      100 0.0094848327 0.0094848327 0.0077568044 0.00027363022 
   22800      100 0.0085339357 0.0085339357 0.0069548432 0.00033676926 
   22900      100 0.0069877006 0.0069877006 0.0057048823 0.00041236305 
   23000      100 0.0069445868 0.0069445868 0.0055381758 0.00027165293 
   23100      100 0.0051822087 0.0051822087 0.0043902451 0.00025621252 
   23200      100 0.0048659827 0.0048659827 0.0041003609 0.00021616015 
   23300      100 0.0041930595 0.0041930595 0.0035390786 0.00033570805 
   23400      100  0.004369435  0.004369435 0.0035527773 0.00021514209 
   23500      100 0.0051721838 0.0051721838 0.0038547747 0.0002140537 
   23600      100 0.0042147049 0.0042147049 0.0031988291 0.00018594958 
   23700      100 0.0027483695 0.0027483695 0.0022581441 0.00026201613 
   23800      100 0.0026710133 0.0026710133 0.0021963943 0.00013865775 
   23900      100  0.002625364  0.002625364 0.0021685536 0.00014023816 
   24000      100 0.0025790384 0.0025790384 0.0021317411 0.00013514554 
   24100      100 0.0024500012 0.0024500012 0.0020257068 0.00013710009 
   24200      100 0.0023525572 0.0023525572 0.0019757377 0.00013355337 
   24300      100 0.0016428229 0.0016428229 0.0014205579 0.00015496607 
   24400      100 0.0013713327 0.0013713327 0.0011561942 0.00019548456 
   24500      100 0.0011394148 0.0011394148 0.00096993247 0.00019322837 
   24600      100 0.0010794854 0.0010794854 0.00093699402 0.00012734916 
   24700      100 0.0011347336 0.0011347336 0.00097416453 0.00012004913 
   24800      100 0.0012334329 0.0012334329 0.0010178497 0.0003504714 
   24900      100 0.00096668811 0.00096668811 0.00081757674 9.8221505e-05 
   25000      100 0.00091441847 0.00091441847 0.00078086254 9.6348448e-05 
Loop time of 0.0966705 on 8 procs for 5000 steps with 100 atoms

Performance: 22343946.484 tau/day, 51722.098 timesteps/s
97.6% CPU use with 8 MPI tasks x no OpenMP threads

MPI task timing breakdown:
Section |  min time  |  avg time  |  max time  |%varavg| %total
---------------------------------------------------------------
Pair    | 0.0019457  | 0.0036758  | 0.0077384  |   3.2 |  3.80
Neigh   | 0.0019326  | 0.0030787  | 0.0047023  |   1.6 |  3.18
Comm    | 0.0087492  | 0.025987   | 0.041626   |   8.1 | 26.88
Output  | 0.0023079  | 0.0025971  | 0.0028586  |   0.4 |  2.69
Modify  | 0.001801   | 0.011619   | 0.02278    |   8.6 | 12.02
Other   |            | 0.04971    |            |       | 51.43

Nlocal:    12.5 ave 29 max 0 min
Histogram: 4 0 0 0 0 1 0 0 0 3
Nghost:    5 ave 12 max 0 min
Histogram: 4 0 0 0 0 0 1 1 0 2
Neighs:    18.625 ave 48 max 0 min
Histogram: 4 0 0 1 0 0 0 0 1 2

Total # of neighbors = 149
Ave neighs/atom = 1.49
Neighbor list builds = 292
Dangerous builds = 0
Total wall time: 0:00:00
