LAMMPS (5 May 2020)
# pouring spheres into container box

units		lj
atom_style      sphere
boundary        f f f
dimension	3
comm_modify     vel yes

region          box block -10 10 -10 10 -10 10 units box
create_box      2 box
Created orthogonal box = (-10 -10 -10) to (10 10 10)
  2 by 2 by 2 MPI processor grid

pair_style	hybrid gran/hooke 4000.0 NULL 100.0 NULL 0.5 1
pair_coeff	* * gran/hooke

region          container block -6 6 -6 6 -6 6 units box
fix		container all wall/gran/region hooke/history 		4000.0 NULL 100.0 NULL 0.5 1 region container

neighbor	0.3 bin
neigh_modify	delay 0 every 1 check yes

fix             2 all nve/sphere
fix		3 all gravity 1.0 vector 0 0 -1

region          slab block -2 2 -2 2 -2 2 units box
fix             ins all pour 100 2 4767548 vol 0.4 10 	        diam one 1.0 region slab ignore
Particle insertion: 48 every 566 steps, 100 by step 1133

timestep	0.005

compute         1 all temp
compute_modify  1 dynamic/dof yes

compute         2 all temp/sphere
compute_modify  2 dynamic/dof yes

thermo		100
thermo_style	custom step atoms temp c_1 c_2 press
thermo_modify   lost ignore
compute_modify  thermo_temp dynamic/dof yes

#dump		2 all image 100 image.*.jpg type type #		zoom 1.4 adiam 1.0 box no 0.0 axes yes 0.9 0.03
#dump_modify	2 pad 5

run	        5000
Neighbor list info ...
  update every 1 steps, delay 0 steps, check yes
  max neighbors/atom: 2000, page size: 100000
  master list distance cutoff = 1.3
  ghost atom cutoff = 1.3
  binsize = 0.65, bins = 31 31 31
  1 neighbor lists, perpetual/occasional/extra = 1 0 0
  (1) pair gran/hooke, perpetual
      attributes: half, newton on, size
      pair build: half/size/bin/newton
      stencil: half/bin/3d/newton
      bin: standard
Per MPI rank memory allocation (min/avg/max) = 0.4669 | 0.4669 | 0.4669 Mbytes
Step Atoms Temp c_1 c_2 Press 
       0        0            0            0            0            0 
     100       30     0.803783     0.803783   0.39507978 0.0029137134 
     200       30    1.1967995    1.1967995    0.5882574 0.0043383984 
     300       30    1.2814686    1.2814686   0.62987441 0.0046453238 
     400       30   0.82043046   0.82043046   0.41050731 0.0029740604 
     500       30   0.76864192   0.76864192   0.38816336 0.0044954338 
     600       64   0.50841254   0.50841254   0.26231777 0.0068620331 
     700       64   0.57312354   0.57312354    0.2951111 0.0045133479 
     800       64   0.61999479   0.61999479   0.32020689 0.0055941605 
     900       64   0.50706975   0.50706975   0.27509238 0.0049740422 
    1000       64   0.44769017   0.44769017   0.24740753 0.0061199917 
    1100       64   0.46844082   0.46844082   0.25873583  0.012044524 
    1200       99   0.44186391   0.44186391   0.24318944 0.0093892395 
    1300       99   0.40702018   0.40702018   0.22265402 0.0095541679 
    1400       99   0.37891717   0.37891717   0.21347799 0.0085409092 
    1500       99   0.35363858   0.35363858   0.19918786 0.0094822923 
    1600       99   0.26581207   0.26581207   0.15443602 0.0045091905 
    1700      100   0.22134602   0.22134602   0.13025386 0.0033871429 
    1800      100   0.11363577   0.11363577  0.073811338 0.0056342999 
    1900      100  0.067533285  0.067533285  0.049248585 0.00097764888 
    2000      100  0.059761484  0.059761484  0.041501501 0.0018001981 
    2100      100  0.057562124  0.057562124  0.038357119 0.0011981939 
    2200      100  0.048538199  0.048538199  0.031314265 0.00091678101 
    2300      100  0.028176493  0.028176493  0.021009795 0.00040246974 
    2400      100  0.018518215  0.018518215  0.015270131 0.00041221098 
    2500      100  0.019024177  0.019024177  0.014532205 0.0010442125 
    2600      100 0.0099273151 0.0099273151   0.00803256 0.0002000179 
    2700      100  0.009044347  0.009044347 0.0072075715 0.00016977791 
    2800      100 0.0066922818 0.0066922818 0.0056628215 0.00012104337 
    2900      100 0.0060752871 0.0060752871 0.0051392337 0.00043456597 
    3000      100 0.0050769587 0.0050769587 0.0043415682 0.0002609174 
    3100      100 0.0035740003 0.0035740003 0.0030131909 0.00020457684 
    3200      100  0.003297257  0.003297257 0.0028133429 0.00038531099 
    3300      100 0.0026249938 0.0026249938 0.0023309787 0.00011408205 
    3400      100 0.0023624887 0.0023624887 0.0020930374 0.00036657893 
    3500      100   0.00211455   0.00211455 0.0018447422 0.00039139846 
    3600      100 0.0014529324 0.0014529324 0.0013372313 5.6923374e-05 
    3700      100 0.0013633721 0.0013633721 0.0012230041 7.1309597e-05 
    3800      100 0.0011150414 0.0011150414  0.001050507 8.4760596e-05 
    3900      100 0.0010657401 0.0010657401 0.0010081078  5.91455e-05 
    4000      100 0.00095783172 0.00095783172 0.0009211028 7.6198145e-05 
    4100      100 0.00067478481 0.00067478481 0.00068995523 0.00010922939 
    4200      100 0.00062180637 0.00062180637 0.00060957712 6.0460361e-05 
    4300      100 0.00041803816 0.00041803816 0.00043334909 0.00011516779 
    4400      100 0.00037220422 0.00037220422 0.00039293464 0.00011765236 
    4500      100 0.00030477121 0.00030477121 0.00031543995 6.2504128e-05 
    4600      100 0.00027319539 0.00027319539 0.00027748635 9.0535448e-05 
    4700      100 0.00026327832 0.00026327832 0.00026901704 6.2497681e-05 
    4800      100 0.00025648176 0.00025648176 0.0002630407 7.0346294e-05 
    4900      100 0.00025765357 0.00025765357 0.0002637821 7.3008776e-05 
    5000      100 0.00026843299 0.00026843299 0.00027166161 6.9052496e-05 
Loop time of 0.101305 on 8 procs for 5000 steps with 100 atoms

Performance: 21321656.489 tau/day, 49355.686 timesteps/s
75.7% CPU use with 8 MPI tasks x no OpenMP threads

MPI task timing breakdown:
Section |  min time  |  avg time  |  max time  |%varavg| %total
---------------------------------------------------------------
Pair    | 0.0007968  | 0.0026224  | 0.0068171  |   3.6 |  2.59
Neigh   | 0.001081   | 0.0020769  | 0.0033495  |   1.6 |  2.05
Comm    | 0.022338   | 0.040398   | 0.060839   |   8.1 | 39.88
Output  | 0.0019476  | 0.0022547  | 0.0024563  |   0.5 |  2.23
Modify  | 0.0020086  | 0.0088384  | 0.020929   |   7.3 |  8.72
Other   |            | 0.04512    |            |       | 44.53

Nlocal:    12.5 ave 29 max 0 min
Histogram: 4 0 0 0 0 0 0 2 1 1
Nghost:    4.625 ave 11 max 0 min
Histogram: 4 0 0 0 0 0 0 1 2 1
Neighs:    20 ave 54 max 0 min
Histogram: 4 0 0 0 0 0 2 1 0 1

Total # of neighbors = 160
Ave neighs/atom = 1.6
Neighbor list builds = 273
Dangerous builds = 0

region          container delete
variable        theta equal (step-5000)*(4.0*PI/5000)
region          container block -6 6 -6 6 -6 6 units box                 rotate v_theta 0 0 0 0 0 1
run	        5000
Per MPI rank memory allocation (min/avg/max) = 5.592 | 5.654 | 5.717 Mbytes
Step Atoms Temp c_1 c_2 Press 
    5000      100 0.00026843299 0.00026843299 0.00027166161 6.9717597e-05 
    5100      100   0.68821731   0.68821731   0.36767002 0.0094932196 
    5200      100   0.75912247   0.75912247   0.40715095  0.010968519 
    5300      100   0.82128401   0.82128401   0.43013847  0.011415324 
    5400      100   0.86760723   0.86760723   0.44864353  0.012303459 
    5500      100   0.91270234   0.91270234    0.4690072  0.015407621 
    5600      100   0.95908085   0.95908085   0.49131306  0.014202728 
    5700      100    1.0147543    1.0147543     0.517961  0.013661968 
    5800      100    1.0747556    1.0747556   0.54602833  0.017410351 
    5900      100    1.1056278    1.1056278   0.56111575   0.01881408 
    6000      100    1.1319937    1.1319937   0.57323176  0.016543197 
    6100      100     1.164445     1.164445   0.58951363  0.018483531 
    6200      100     1.194308     1.194308    0.6041375  0.020314029 
    6300      100    1.2502107    1.2502107   0.62964877  0.019991285 
    6400      100    1.2797276    1.2797276   0.64321175  0.020936271 
    6500      100    1.2832187    1.2832187   0.64333695  0.020979761 
    6600      100    1.2956179    1.2956179   0.64863628  0.022755136 
    6700      100    1.3230542    1.3230542   0.66148851  0.022780013 
    6800      100    1.3364658    1.3364658   0.66846932   0.02110945 
    6900      100    1.3459652    1.3459652     0.673285  0.021544195 
    7000      100    1.3446369    1.3446369   0.67225003  0.021924945 
    7100      100     1.335941     1.335941   0.66799456  0.023268683 
    7200      100    1.3335041    1.3335041   0.66646839  0.021743125 
    7300      100    1.3329428    1.3329428    0.6660833   0.02255733 
    7400      100    1.3423855    1.3423855   0.67054937  0.022361368 
    7500      100     1.342725     1.342725    0.6706047    0.0235706 
    7600      100    1.3437092    1.3437092   0.67099532  0.024180862 
    7700      100    1.3434379    1.3434379   0.67071114   0.02296611 
    7800      100    1.3435935    1.3435935   0.67077486  0.022999226 
    7900      100    1.3433998    1.3433998   0.67076013   0.02298027 
    8000      100     1.344954     1.344954   0.67164333  0.022930077 
    8100      100    1.3433508    1.3433508   0.67085617  0.022640219 
    8200      100    1.3427952    1.3427952     0.670629  0.022914241 
    8300      100    1.3440805    1.3440805   0.67130952  0.022875299 
    8400      100    1.3447679    1.3447679    0.6714893  0.022813409 
    8500      100    1.3449439    1.3449439   0.67149741  0.022828108 
    8600      100    1.3451688    1.3451688   0.67158748  0.022836091 
    8700      100     1.345425     1.345425   0.67170559  0.022853972 
    8800      100    1.3456091    1.3456091   0.67179652  0.022890535 
    8900      100    1.3457691    1.3457691   0.67187839  0.022909675 
    9000      100    1.3458668    1.3458668   0.67193446  0.022927735 
    9100      100    1.3461007    1.3461007   0.67205954  0.022954775 
    9200      100    1.3476645    1.3476645   0.67285928  0.023183976 
    9300      100    1.3474546    1.3474546   0.67294292  0.023008389 
    9400      100    1.3509305    1.3509305    0.6744653  0.023048715 
    9500      100    1.3519923    1.3519923    0.6750028  0.023035301 
    9600      100    1.3532949    1.3532949   0.67565576  0.023652878 
    9700      100    1.3551655    1.3551655   0.67668708  0.023371474 
    9800      100    1.3537844    1.3537844   0.67592897  0.023359629 
    9900      100    1.3534191    1.3534191   0.67584254  0.024376305 
   10000      100    1.3537347    1.3537347   0.67591256  0.023499559 
Loop time of 0.174717 on 8 procs for 5000 steps with 100 atoms

Performance: 12362871.404 tau/day, 28617.758 timesteps/s
75.6% CPU use with 8 MPI tasks x no OpenMP threads

MPI task timing breakdown:
Section |  min time  |  avg time  |  max time  |%varavg| %total
---------------------------------------------------------------
Pair    | 0.00076183 | 0.0064576  | 0.015528   |   6.9 |  3.70
Neigh   | 0.0019431  | 0.0045848  | 0.0080652  |   3.2 |  2.62
Comm    | 0.011199   | 0.034088   | 0.061547   |  12.3 | 19.51
Output  | 0.0019465  | 0.002715   | 0.0032855  |   1.0 |  1.55
Modify  | 0.0079731  | 0.035951   | 0.07942    |  14.8 | 20.58
Other   |            | 0.09092    |            |       | 52.04

Nlocal:    12.5 ave 28 max 0 min
Histogram: 4 0 0 0 0 0 0 1 0 3
Nghost:    3.375 ave 7 max 0 min
Histogram: 4 0 0 0 0 0 0 0 1 3
Neighs:    23.375 ave 59 max 0 min
Histogram: 4 0 0 0 1 0 0 1 0 2

Total # of neighbors = 187
Ave neighs/atom = 1.87
Neighbor list builds = 629
Dangerous builds = 0

region          container delete
region          container block -6 6 -6 6 -6 6 units box
run             5000
Per MPI rank memory allocation (min/avg/max) = 5.592 | 5.654 | 5.717 Mbytes
Step Atoms Temp c_1 c_2 Press 
   10000      100    1.3537347    1.3537347   0.67591256  0.023581205 
   10100      100   0.38904356   0.38904356    0.2168977 0.0046275804 
   10200      100   0.24464832   0.24464832   0.14872746 0.0032539449 
   10300      100   0.15851959   0.15851959   0.10890973 0.0042836341 
   10400      100  0.094934208  0.094934208  0.069298936 0.0024355086 
   10500      100  0.064344826  0.064344826  0.049358054 0.0017872074 
   10600      100  0.046130633  0.046130633  0.035616332 0.00078021338 
   10700      100  0.037387416  0.037387416  0.029280829 0.0012546598 
   10800      100  0.032773096  0.032773096   0.02569997 0.00059522067 
   10900      100  0.026659167  0.026659167  0.020933218 0.00036830446 
   11000      100  0.022436483  0.022436483   0.01760896 0.00040351878 
   11100      100  0.017650911  0.017650911  0.014115823 0.00045104028 
   11200      100  0.015409179  0.015409179   0.01225294 0.00047800756 
   11300      100  0.014156058  0.014156058  0.011338113 0.00020517617 
   11400      100  0.013104093  0.013104093  0.010586362 0.00050333066 
   11500      100  0.011399046  0.011399046 0.0092011981 0.00030644366 
   11600      100 0.0098087342 0.0098087342 0.0079725445 0.00015051722 
   11700      100  0.008817841  0.008817841 0.0072912113 9.1813131e-05 
   11800      100 0.0078390037 0.0078390037 0.0065434181 0.00038327658 
   11900      100 0.0069198861 0.0069198861 0.0058526149 0.00010801934 
   12000      100 0.0065445393 0.0065445393  0.005507376 0.00024782161 
   12100      100 0.0062555209 0.0062555209 0.0053090699 9.8739726e-05 
   12200      100 0.0055301372 0.0055301372 0.0047936288 0.00015512025 
   12300      100 0.0048936521 0.0048936521 0.0043173773 0.0001140805 
   12400      100 0.0041220875 0.0041220875 0.0036165625 0.00034508422 
   12500      100 0.0038465183 0.0038465183 0.0033875165 0.00014492425 
   12600      100 0.0032421191 0.0032421191 0.0029312338 0.00023834323 
   12700      100 0.0027087795 0.0027087795 0.0025277375 5.8974817e-05 
   12800      100 0.0026503876 0.0026503876 0.0024498432 9.2617262e-05 
   12900      100 0.0022540759 0.0022540759 0.0021558774 2.6550873e-05 
   13000      100 0.0020986798 0.0020986798 0.0020458561 6.2535875e-05 
   13100      100 0.0020057592 0.0020057592 0.0019728391 8.8175261e-06 
   13200      100 0.0019153837 0.0019153837 0.0018683449 2.3702873e-05 
   13300      100 0.0018254559 0.0018254559 0.0018033051 2.2590017e-05 
   13400      100 0.0018074672 0.0018074672 0.0017885719 2.2367407e-05 
   13500      100 0.0016690501 0.0016690501 0.0016462776 2.9797437e-05 
   13600      100  0.001395185  0.001395185 0.0013745827 2.6457837e-05 
   13700      100 0.0013383637 0.0013383637 0.0013134703 0.00016528656 
   13800      100 0.0012920754 0.0012920754 0.0012497608 1.5989433e-05 
   13900      100 0.0012451294 0.0012451294  0.001223492 1.6576141e-05 
   14000      100  0.001216864  0.001216864 0.0012042121 1.5058692e-05 
   14100      100 0.0011890619 0.0011890619 0.0011856823 3.1172083e-05 
   14200      100 0.0010967209 0.0010967209 0.0011034737 1.3571921e-05 
   14300      100 0.00097452742 0.00097452742 0.00099094881 1.5040528e-05 
   14400      100 0.00090431708 0.00090431708 0.00089828921 1.4779318e-05 
   14500      100 0.00089244815 0.00089244815 0.00088711782 1.1044046e-05 
   14600      100 0.00077760726 0.00077760726 0.00078367134 1.842994e-05 
   14700      100 0.00069470564 0.00069470564 0.00071137285 0.00017846707 
   14800      100 0.00065156517 0.00065156517 0.00067656911 8.735589e-06 
   14900      100 0.00062361884 0.00062361884 0.00065653711 1.5915568e-05 
   15000      100 0.00058839825 0.00058839825 0.00060418095 7.1606397e-05 
Loop time of 0.0856663 on 8 procs for 5000 steps with 100 atoms

Performance: 25214129.389 tau/day, 58366.040 timesteps/s
73.0% CPU use with 8 MPI tasks x no OpenMP threads

MPI task timing breakdown:
Section |  min time  |  avg time  |  max time  |%varavg| %total
---------------------------------------------------------------
Pair    | 0.00067754 | 0.0023235  | 0.0057678  |   3.4 |  2.71
Neigh   | 0.00031262 | 0.00069726 | 0.0012767  |   0.0 |  0.81
Comm    | 0.0030096  | 0.023344   | 0.046367   |  13.0 | 27.25
Output  | 0.0017897  | 0.0021197  | 0.0023647  |   0.5 |  2.47
Modify  | 0.0005432  | 0.0088635  | 0.023838   |   9.4 | 10.35
Other   |            | 0.04832    |            |       | 56.40

Nlocal:    12.5 ave 30 max 0 min
Histogram: 4 0 0 0 0 0 1 1 0 2
Nghost:    4.25 ave 11 max 0 min
Histogram: 4 0 0 1 0 0 0 0 1 2
Neighs:    20.25 ave 53 max 0 min
Histogram: 4 0 0 0 1 1 0 0 0 2

Total # of neighbors = 162
Ave neighs/atom = 1.62
Neighbor list builds = 96
Dangerous builds = 0

region          container delete
variable        theta equal (step-15000)*(4.0*PI/5000)
region          container block -6 6 -6 6 -6 6 units box                 rotate v_theta 0 0 0 1 1 1
run	        5000
Per MPI rank memory allocation (min/avg/max) = 5.592 | 5.654 | 5.717 Mbytes
Step Atoms Temp c_1 c_2 Press 
   15000      100 0.00058839825 0.00058839825 0.00060418095 6.6985376e-05 
   15100      100    1.1296004    1.1296004   0.70386935  0.016080075 
   15200      100    1.1897736    1.1897736   0.73786342  0.015911393 
   15300      100    1.2217381    1.2217381   0.77533982  0.016677244 
   15400      100    1.3675606    1.3675606   0.87884808  0.018095063 
   15500      100    1.5720126    1.5720126   0.98717348  0.022886824 
   15600      100    1.7899996    1.7899996    1.0952371  0.027559097 
   15700      100    2.0717853    2.0717853    1.2031386  0.031761779 
   15800      100    2.1772119    2.1772119    1.2346414  0.031086097 
   15900      100    2.2690368    2.2690368    1.2790142  0.032310721 
   16000      100    2.2233094    2.2233094    1.2643562  0.032405949 
   16100      100    2.3381387    2.3381387    1.3125237  0.036292606 
   16200      100    2.3439595    2.3439595    1.3052754  0.036791955 
   16300      100    2.4156801    2.4156801     1.338676  0.031679321 
   16400      100    2.5773343    2.5773343    1.4199676  0.032235576 
   16500      100    2.7352792    2.7352792    1.5074872  0.037223109 
   16600      100    2.7747686    2.7747686    1.5230129  0.038849207 
   16700      100    2.7175889    2.7175889    1.4993386  0.036137401 
   16800      100    2.9697926    2.9697926    1.6207295  0.039370098 
   16900      100    3.0773026    3.0773026    1.6752913  0.047004635 
   17000      100    3.0424409    3.0424409    1.6746669  0.042445682 
   17100      100    3.1396312    3.1396312     1.703769   0.04440142 
   17200      100    3.3827019    3.3827019     1.826122  0.047000246 
   17300      100     3.336407     3.336407    1.8050902  0.052701053 
   17400      100     3.169345     3.169345    1.7320549  0.042222357 
   17500      100    3.3414553    3.3414553     1.826882  0.042462593 
   17600      100    3.3640126    3.3640126    1.8378503  0.045409489 
   17700      100     3.221487     3.221487    1.7772639    0.0464408 
   17800      100    3.4198857    3.4198857    1.8686726  0.046659572 
   17900      100    3.2537344    3.2537344    1.7942435  0.047258682 
   18000      100    3.1213513    3.1213513     1.727483  0.049294536 
   18100      100    3.3039336    3.3039336    1.8135077  0.042948176 
   18200      100    3.3075158    3.3075158    1.8236254  0.045854087 
   18300      100     3.334334     3.334334    1.8327525  0.046868543 
   18400      100    3.3887489    3.3887489    1.8758995  0.041896868 
   18500      100    3.4351332    3.4351332    1.8874615  0.050215477 
   18600      100    3.6076674    3.6076674    1.9613773  0.046633995 
   18700      100    3.6860131    3.6860131    1.9944484  0.048088445 
   18800      100    3.8887143    3.8887143    2.0924035  0.050977034 
   18900      100    3.9167314    3.9167314    2.1099966  0.050913529 
   19000      100    4.0809915    4.0809915    2.1727501  0.054406236 
   19100      100    4.0324115    4.0324115    2.1516983  0.055067205 
   19200      100    4.1522372    4.1522372    2.2073231  0.056517765 
   19300      100    3.9269635    3.9269635     2.104849  0.066991198 
   19400      100    4.1208158    4.1208158    2.2022762  0.054552437 
   19500      100    3.9588272    3.9588272    2.1270405  0.056817988 
   19600      100    3.9063282    3.9063282    2.0976233  0.055656132 
   19700      100    3.7383931    3.7383931    2.0354903   0.05030213 
   19800      100    3.6475845    3.6475845     1.979824  0.048398511 
   19900      100    3.5719936    3.5719936    1.9507791  0.046895843 
   20000      100    3.5262639    3.5262639     1.921637  0.050047138 
Loop time of 0.157458 on 8 procs for 5000 steps with 100 atoms

Performance: 13717978.638 tau/day, 31754.580 timesteps/s
75.7% CPU use with 8 MPI tasks x no OpenMP threads

MPI task timing breakdown:
Section |  min time  |  avg time  |  max time  |%varavg| %total
---------------------------------------------------------------
Pair    | 0.00084583 | 0.0032998  | 0.005063   |   2.2 |  2.10
Neigh   | 0.0027194  | 0.0065876  | 0.00985    |   2.6 |  4.18
Comm    | 0.014949   | 0.046864   | 0.055813   |   5.7 | 29.76
Output  | 0.002021   | 0.0022972  | 0.0028045  |   0.5 |  1.46
Modify  | 0.0077136  | 0.029833   | 0.048637   |   6.6 | 18.95
Other   |            | 0.06858    |            |       | 43.55

Nlocal:    12.5 ave 29 max 0 min
Histogram: 2 1 0 1 1 0 0 2 0 1
Nghost:    3 ave 7 max 0 min
Histogram: 2 1 1 0 0 1 0 2 0 1
Neighs:    17.375 ave 45 max 0 min
Histogram: 3 0 2 0 0 0 0 1 1 1

Total # of neighbors = 139
Ave neighs/atom = 1.39
Neighbor list builds = 913
Dangerous builds = 0

region          container delete
region          container block -6 6 -6 6 -6 6 units box
run             5000
Per MPI rank memory allocation (min/avg/max) = 5.592 | 5.701 | 5.717 Mbytes
Step Atoms Temp c_1 c_2 Press 
   20000      100    3.5262639    3.5262639     1.921637  0.049742927 
   20100      100    1.0504666    1.0504666   0.66923539   0.01830622 
   20200      100   0.93022266   0.93022266   0.59155929   0.01152787 
   20300      100   0.86445254   0.86445254   0.55675002   0.01124779 
   20400      100   0.86688044   0.86688044   0.54775033  0.011770313 
   20500      100   0.85965537   0.85965537   0.53284959  0.012125464 
   20600      100   0.88133992   0.88133992   0.52417201  0.012418871 
   20700      100   0.99559783   0.99559783   0.57735141  0.013040771 
   20800      100   0.98613316   0.98613316   0.56386764  0.014233014 
   20900      100   0.77335372   0.77335372   0.44587838  0.011853622 
   21000      100   0.57827721   0.57827721   0.34499546  0.012251612 
   21100      100   0.33590009   0.33590009   0.21458326 0.0079305366 
   21200      100    0.2614816    0.2614816   0.16482075  0.010290639 
   21300      100   0.18801064   0.18801064   0.12532696 0.0071121379 
   21400      100   0.11281483   0.11281483  0.082705091 0.0019432342 
   21500      100   0.06826871   0.06826871  0.052700312 0.0016583097 
   21600      100  0.052723338  0.052723338  0.042262305 0.0013805164 
   21700      100  0.042955512  0.042955512  0.032408111 0.00087740528 
   21800      100  0.036706013  0.036706013  0.028151105 0.00071429364 
   21900      100  0.031456974  0.031456974  0.024488972 0.0011122949 
   22000      100  0.029845945  0.029845945  0.023671612 0.00079560133 
   22100      100  0.025410634  0.025410634  0.020605595 0.0012234321 
   22200      100  0.017966494  0.017966494   0.01474686 0.00040940328 
   22300      100  0.014575499  0.014575499  0.011715607 0.00038120925 
   22400      100 0.0091735117 0.0091735117 0.0072747971 0.0006589283 
   22500      100 0.0070424635 0.0070424635 0.0059363043 0.00036640026 
   22600      100  0.007174884  0.007174884 0.0058305738 0.0005399447 
   22700      100 0.0065221416 0.0065221416 0.0054335433 0.00031653565 
   22800      100 0.0059086858 0.0059086858 0.0050118874 0.0003740755 
   22900      100 0.0053691864 0.0053691864 0.0046723929  0.000270575 
   23000      100  0.004917543  0.004917543 0.0042994765 0.00029693219 
   23100      100 0.0048586952 0.0048586952 0.0042991779 0.00051619605 
   23200      100 0.0052206324 0.0052206324 0.0044547365 0.00045405647 
   23300      100 0.0053386848 0.0053386848  0.004327341 0.00030881061 
   23400      100 0.0044836023 0.0044836023 0.0037829121 0.00018403077 
   23500      100   0.00392902   0.00392902 0.0033965856 0.0001901005 
   23600      100 0.0039357015 0.0039357015 0.0034081227 0.00018063552 
   23700      100 0.0048315444 0.0048315444 0.0038922979 0.00016535885 
   23800      100 0.0044194857 0.0044194857 0.0036763642 0.0001306016 
   23900      100 0.0033568745 0.0033568745 0.0028992327 0.00010557765 
   24000      100  0.002967616  0.002967616 0.0025766901 0.00017466125 
   24100      100 0.0027910002 0.0027910002 0.0024389745 8.9968031e-05 
   24200      100 0.0027615448 0.0027615448  0.002396825 0.00011503146 
   24300      100 0.0027742292 0.0027742292 0.0023411421 0.00049023327 
   24400      100 0.0021791475 0.0021791475 0.0018501668 0.00012025526 
   24500      100 0.0018080547 0.0018080547 0.0014650238 4.8946888e-05 
   24600      100 0.0016217363 0.0016217363 0.0013147162 6.4548214e-05 
   24700      100  0.001596091  0.001596091 0.0012963717 6.3354168e-05 
   24800      100 0.0015840121 0.0015840121 0.0012764117 6.3459199e-05 
   24900      100 0.0015433118 0.0015433118 0.0012335283 6.673982e-05 
   25000      100 0.0013594627 0.0013594627 0.0011125902 0.00013561865 
Loop time of 0.0806404 on 8 procs for 5000 steps with 100 atoms

Performance: 26785569.795 tau/day, 62003.634 timesteps/s
67.1% CPU use with 8 MPI tasks x no OpenMP threads

MPI task timing breakdown:
Section |  min time  |  avg time  |  max time  |%varavg| %total
---------------------------------------------------------------
Pair    | 0.00070281 | 0.00243    | 0.0043677  |   2.9 |  3.01
Neigh   | 0.00088595 | 0.0019906  | 0.0029154  |   1.5 |  2.47
Comm    | 0.012823   | 0.026709   | 0.042935   |   8.1 | 33.12
Output  | 0.0016683  | 0.0019448  | 0.0021214  |   0.4 |  2.41
Modify  | 0.00062835 | 0.0073884  | 0.016295   |   7.4 |  9.16
Other   |            | 0.04018    |            |       | 49.82

Nlocal:    12.5 ave 27 max 0 min
Histogram: 4 0 0 0 0 0 0 0 2 2
Nghost:    5.625 ave 15 max 0 min
Histogram: 4 0 0 0 0 0 2 0 1 1
Neighs:    19.375 ave 47 max 0 min
Histogram: 4 0 0 0 0 1 0 1 0 2

Total # of neighbors = 155
Ave neighs/atom = 1.55
Neighbor list builds = 294
Dangerous builds = 0
Total wall time: 0:00:00
