LAMMPS (8 Feb 2023)
# pour particles into cone-shaped funnel, settle them, let them run out bottom

variable	name string funnel_pour

thermo_modify	flush yes
units 		si
variable	PI equal 3.141592653589
variable	seed equal 14314

###############################################
# Geometry-related parameters
###############################################

variable	xlo equal 10
variable	xhi equal 40
variable	ylo equal 10
variable	yhi equal 40
variable	zlo equal -20
variable	zhi equal 50

variable	xc equal 25
variable	yc equal 25

variable	zconehi equal 50
variable	zconelo equal 10
variable	zcyllo equal 0
variable	radconelo equal 2
variable	radconehi equal 20

################################################
# Particle sizes
################################################

variable	rlo equal 0.25
variable	rhi equal 0.5
variable	dlo equal 2.0*${rlo}
variable	dlo equal 2.0*0.25
variable	dhi equal 2.0*${rhi}
variable	dhi equal 2.0*0.5

variable 	skin equal ${rhi}
variable 	skin equal 0.5

###############################################
# Granular contact parameters
###############################################

variable	coeffRes equal 0.1
variable	coeffFric equal 0.5

variable	density equal 1.0
variable	EYoung equal 10^5
variable 	Poisson equal 2.0/7.0
variable	GShear equal ${EYoung}/(2*(1+${Poisson}))
variable	GShear equal 100000/(2*(1+${Poisson}))
variable	GShear equal 100000/(2*(1+0.285714285714286))

variable	gravity equal 1.0

variable	reff equal 0.5*(${rhi}+${rlo})
variable	reff equal 0.5*(0.5+${rlo})
variable	reff equal 0.5*(0.5+0.25)
variable	meff equal ${density}*4.0/3.0*${PI}*${reff}^3
variable	meff equal 1*4.0/3.0*${PI}*${reff}^3
variable	meff equal 1*4.0/3.0*3.141592653589*${reff}^3
variable	meff equal 1*4.0/3.0*3.141592653589*0.375^3
variable	min_mass equal ${density}*4.0/3.0*${PI}*${rlo}*${rlo}*${rlo}
variable	min_mass equal 1*4.0/3.0*${PI}*${rlo}*${rlo}*${rlo}
variable	min_mass equal 1*4.0/3.0*3.141592653589*${rlo}*${rlo}*${rlo}
variable	min_mass equal 1*4.0/3.0*3.141592653589*0.25*${rlo}*${rlo}
variable	min_mass equal 1*4.0/3.0*3.141592653589*0.25*0.25*${rlo}
variable	min_mass equal 1*4.0/3.0*3.141592653589*0.25*0.25*0.25
variable	max_mass equal ${density}*4.0/3.0*${PI}*${rhi}*${rhi}*${rhi}
variable	max_mass equal 1*4.0/3.0*${PI}*${rhi}*${rhi}*${rhi}
variable	max_mass equal 1*4.0/3.0*3.141592653589*${rhi}*${rhi}*${rhi}
variable	max_mass equal 1*4.0/3.0*3.141592653589*0.5*${rhi}*${rhi}
variable	max_mass equal 1*4.0/3.0*3.141592653589*0.5*0.5*${rhi}
variable	max_mass equal 1*4.0/3.0*3.141592653589*0.5*0.5*0.5

## Typical way to set kn, kt, etc.:
variable        kn equal 4.0*${GShear}/(3*(1-${Poisson}))
variable        kn equal 4.0*38888.8888888889/(3*(1-${Poisson}))
variable        kn equal 4.0*38888.8888888889/(3*(1-0.285714285714286))
variable        kt equal 4.0*${GShear}/(2-${Poisson})
variable        kt equal 4.0*38888.8888888889/(2-${Poisson})
variable        kt equal 4.0*38888.8888888889/(2-0.285714285714286)

variable	a equal (-2.0*log(${coeffRes})/${PI})^2
variable	a equal (-2.0*log(0.1)/${PI})^2
variable	a equal (-2.0*log(0.1)/3.141592653589)^2
variable        gamma_n equal sqrt($a*2*${kn}/${min_mass}/(1+0.25*$a))
variable        gamma_n equal sqrt(0.405284734569556*2*${kn}/${min_mass}/(1+0.25*$a))
variable        gamma_n equal sqrt(0.405284734569556*2*72592.5925925926/${min_mass}/(1+0.25*$a))
variable        gamma_n equal sqrt(0.405284734569556*2*72592.5925925926/0.0654498469497708/(1+0.25*$a))
variable        gamma_n equal sqrt(0.405284734569556*2*72592.5925925926/0.0654498469497708/(1+0.25*0.405284734569556))
variable        gamma_t equal ${gamma_n}*0.5
variable        gamma_t equal 903.503751814138*0.5

variable	tcol equal ${PI}/sqrt(2*${kn}/${min_mass}-${gamma_n}/4.0)
variable	tcol equal 3.141592653589/sqrt(2*${kn}/${min_mass}-${gamma_n}/4.0)
variable	tcol equal 3.141592653589/sqrt(2*72592.5925925926/${min_mass}-${gamma_n}/4.0)
variable	tcol equal 3.141592653589/sqrt(2*72592.5925925926/0.0654498469497708-${gamma_n}/4.0)
variable	tcol equal 3.141592653589/sqrt(2*72592.5925925926/0.0654498469497708-903.503751814138/4.0)

variable	dt equal ${tcol}*0.05
variable	dt equal 0.00210943016014969*0.05
timestep	${dt}
timestep	0.000105471508007485

###############################################
variable	dumpfreq equal 1000
variable	logfreq equal 1000

newton 		off
atom_style	sphere

boundary	p p f

region		boxreg block ${xlo} ${xhi} ${ylo} ${yhi} ${zlo} ${zhi}
region		boxreg block 10 ${xhi} ${ylo} ${yhi} ${zlo} ${zhi}
region		boxreg block 10 40 ${ylo} ${yhi} ${zlo} ${zhi}
region		boxreg block 10 40 10 ${yhi} ${zlo} ${zhi}
region		boxreg block 10 40 10 40 ${zlo} ${zhi}
region		boxreg block 10 40 10 40 -20 ${zhi}
region		boxreg block 10 40 10 40 -20 50
create_box	1 boxreg
Created orthogonal box = (10 10 -20) to (40 40 50)
  1 by 2 by 4 MPI processor grid

pair_style	gran/hertz/history 		${kn} ${kt} ${gamma_n} ${gamma_t} ${coeffFric} 1
pair_style	gran/hertz/history 		72592.5925925926 ${kt} ${gamma_n} ${gamma_t} ${coeffFric} 1
pair_style	gran/hertz/history 		72592.5925925926 90740.7407407408 ${gamma_n} ${gamma_t} ${coeffFric} 1
pair_style	gran/hertz/history 		72592.5925925926 90740.7407407408 903.503751814138 ${gamma_t} ${coeffFric} 1
pair_style	gran/hertz/history 		72592.5925925926 90740.7407407408 903.503751814138 451.751875907069 ${coeffFric} 1
pair_style	gran/hertz/history 		72592.5925925926 90740.7407407408 903.503751814138 451.751875907069 0.5 1
pair_coeff	* *

neighbor        ${skin} multi
neighbor        0.5 multi
thermo 		${logfreq}
thermo 		1000

comm_style	brick
comm_modify 	mode multi group all vel yes
balance		1.1 shift xyz 20 1.1
Balancing ...
Generated 0 of 0 mixed pair_coeff terms from geometric mixing rule
Neighbor list info ...
  update: every = 1 steps, delay = 0 steps, check = yes
  max neighbors/atom: 2000, page size: 100000
  master list distance cutoff = 0
  ghost atom cutoff = 0
  binsize = 30, bins = 1 1 3
  1 neighbor lists, perpetual/occasional/extra = 1 0 0
  (1) pair gran/hertz/history, perpetual
      attributes: half, newton off, size, history
      pair build: half/size/multi/newtoff
      stencil: full/multi/3d
      bin: multi
WARNING: Communication cutoff is 0.0. No ghost atoms will be generated. Atoms may get lost. (src/comm_brick.cpp:210)
fix		bal all balance 10000 1.1 shift xyz 20 1.01

####################### Options specific to pouring #########################

# insertion region for fix/pour

region	     	insreg cylinder z ${xc} ${yc} 10 30 50 side in units box
region	     	insreg cylinder z 25 ${yc} 10 30 50 side in units box
region	     	insreg cylinder z 25 25 10 30 50 side in units box

# define cone and cylinder regions - see lammps doc on region command
# note new open options

region	    	cylreg cylinder z ${xc} ${yc} ${radconelo} 		${zcyllo} ${zconelo} side in units box 		open 2 #Top is open
region	    	cylreg cylinder z 25 ${yc} ${radconelo} 		${zcyllo} ${zconelo} side in units box 		open 2 
region	    	cylreg cylinder z 25 25 ${radconelo} 		${zcyllo} ${zconelo} side in units box 		open 2 
region	    	cylreg cylinder z 25 25 2 		${zcyllo} ${zconelo} side in units box 		open 2 
region	    	cylreg cylinder z 25 25 2 		0 ${zconelo} side in units box 		open 2 
region	    	cylreg cylinder z 25 25 2 		0 10 side in units box 		open 2 

region		conereg cone z ${xc} ${yc} ${radconelo} ${radconehi} 		${zconelo} ${zconehi} side in units box 		open 1 open 2 #Bottom and top are open
region		conereg cone z 25 ${yc} ${radconelo} ${radconehi} 		${zconelo} ${zconehi} side in units box 		open 1 open 2 
region		conereg cone z 25 25 ${radconelo} ${radconehi} 		${zconelo} ${zconehi} side in units box 		open 1 open 2 
region		conereg cone z 25 25 2 ${radconehi} 		${zconelo} ${zconehi} side in units box 		open 1 open 2 
region		conereg cone z 25 25 2 20 		${zconelo} ${zconehi} side in units box 		open 1 open 2 
region		conereg cone z 25 25 2 20 		10 ${zconehi} side in units box 		open 1 open 2 
region		conereg cone z 25 25 2 20 		10 50 side in units box 		open 1 open 2 

region		hopreg union 2 conereg cylreg

fix		grav all gravity ${gravity} vector 0 0 -1
fix		grav all gravity 1 vector 0 0 -1
fix		1 all nve/sphere


fix		hopper3 all wall/gran/region hertz/history                 ${kn} ${kt} ${gamma_n} ${gamma_t} ${coeffFric} 1 region hopreg
fix		hopper3 all wall/gran/region hertz/history                 72592.5925925926 ${kt} ${gamma_n} ${gamma_t} ${coeffFric} 1 region hopreg
fix		hopper3 all wall/gran/region hertz/history                 72592.5925925926 90740.7407407408 ${gamma_n} ${gamma_t} ${coeffFric} 1 region hopreg
fix		hopper3 all wall/gran/region hertz/history                 72592.5925925926 90740.7407407408 903.503751814138 ${gamma_t} ${coeffFric} 1 region hopreg
fix		hopper3 all wall/gran/region hertz/history                 72592.5925925926 90740.7407407408 903.503751814138 451.751875907069 ${coeffFric} 1 region hopreg
fix		hopper3 all wall/gran/region hertz/history                 72592.5925925926 90740.7407407408 903.503751814138 451.751875907069 0.5 1 region hopreg

fix		ins all pour 2000 1 42424 region insreg 		diam range ${dlo} ${dhi} dens ${density} ${density}
fix		ins all pour 2000 1 42424 region insreg 		diam range 0.5 ${dhi} dens ${density} ${density}
fix		ins all pour 2000 1 42424 region insreg 		diam range 0.5 1 dens ${density} ${density}
fix		ins all pour 2000 1 42424 region insreg 		diam range 0.5 1 dens 1 ${density}
fix		ins all pour 2000 1 42424 region insreg 		diam range 0.5 1 dens 1 1
Particle insertion: 3000 every 59965 steps, 2000 by step 1

#dump		1 all custom ${dumpfreq} ${name}.dump #		id type mass diameter x y z

#dump		2 all image 4000 image.*.jpg type type #		axes yes 0.8 0.02 view 60 -30 zoom 3.0 #                box no 0.0 axes no 0.0 0.0
#dump_modify	2 pad 6

thermo_style	custom step cpu atoms ke
WARNING: New thermo_style command, previous thermo_modify settings will be lost (src/output.cpp:895)
thermo_modify	flush yes lost warn

# Initial run to fill up the cone

run		20000

CITE-CITE-CITE-CITE-CITE-CITE-CITE-CITE-CITE-CITE-CITE-CITE-CITE

Your simulation uses code contributions which should be cited:

- neighbor multi command: doi:10.1016/j.cpc.2008.03.005, doi:10.1007/s40571-020-00361-2

@Article{Intveld08,
 author =  {in 't Veld, P. J. and S. J.~Plimpton and G. S. Grest},
 title =   {Accurate and Efficient Methods for Modeling Colloidal
            Mixtures in an Explicit Solvent using Molecular Dynamics},
 journal = {Comput.\ Phys.\ Commut.},
 year =    2008,
 volume =  179,
 pages =   {320--329}
}

@article{Shire2020,
 author = {Shire, Tom and Hanley, Kevin J. and Stratford, Kevin},
 title = {{DEM} Simulations of Polydisperse Media: Efficient Contact
          Detection Applied to Investigate the Quasi-Static Limit},
 journal = {Computational Particle Mechanics},
 year = {2020}
}

CITE-CITE-CITE-CITE-CITE-CITE-CITE-CITE-CITE-CITE-CITE-CITE-CITE

Generated 0 of 0 mixed pair_coeff terms from geometric mixing rule
Per MPI rank memory allocation (min/avg/max) = 5.939 | 5.939 | 5.939 Mbytes
   Step          CPU          Atoms        KinEng    
         0   0                      0  -0            
      1000   1.1737145           2000  -0            
      2000   1.446811            2000  -0            
      3000   1.7163245           2000  -0            
      4000   1.9439614           2000  -0            
      5000   2.1665873           2000  -0            
      6000   2.3853079           2000  -0            
      7000   2.5995616           2000  -0            
      8000   2.8029635           2000  -0            
      9000   3.0037172           2000  -0            
     10000   3.1968956           2000  -0            
     11000   3.2848886           2000  -0            
     12000   3.3734352           2000  -0            
     13000   3.4589842           2000  -0            
     14000   3.5573597           2000  -0            
     15000   3.6572588           2000  -0            
     16000   3.7618765           2000  -0            
     17000   3.8578351           2000  -0            
     18000   3.9652004           2000  -0            
     19000   4.0671462           2000  -0            
     20000   4.1715562           2000  -0            
Loop time of 4.17162 on 8 procs for 20000 steps with 2000 atoms

98.9% CPU use with 8 MPI tasks x no OpenMP threads

MPI task timing breakdown:
Section |  min time  |  avg time  |  max time  |%varavg| %total
---------------------------------------------------------------
Pair    | 0.02911    | 0.082566   | 0.21163    |  24.2 |  1.98
Neigh   | 0.0075541  | 0.015313   | 0.030323   |   6.6 |  0.37
Comm    | 0.395      | 0.65255    | 0.97484    |  23.0 | 15.64
Output  | 0.0014067  | 0.0027132  | 0.0033395  |   1.3 |  0.07
Modify  | 0.94608    | 1.504      | 2.9259     |  59.0 | 36.05
Other   |            | 1.914      |            |       | 45.89

Nlocal:            250 ave         267 max         239 min
Histogram: 1 2 1 0 1 1 1 0 0 1
Nghost:        139.375 ave         183 max         100 min
Histogram: 2 0 0 2 0 2 0 0 0 2
Neighs:            214 ave         336 max         126 min
Histogram: 3 1 0 0 0 0 2 1 0 1

Total # of neighbors = 1712
Ave neighs/atom = 0.856
Neighbor list builds = 71
Dangerous builds = 0
unfix 		ins
run		150000
Generated 0 of 0 mixed pair_coeff terms from geometric mixing rule
Per MPI rank memory allocation (min/avg/max) = 12.07 | 12.15 | 12.28 Mbytes
   Step          CPU          Atoms        KinEng    
     20000   0                   2000   6652.2957    
     21000   0.082882516         2000   6807.2201    
     22000   0.16461551          2000   6973.9359    
     23000   0.24044772          2000   7142.3648    
     24000   0.33641938          2000   7276.9717    
     25000   0.4414202           2000   7369.4191    
     26000   0.55503962          2000   7497.6526    
     27000   0.68497757          2000   7638.946     
     28000   0.80483995          2000   7780.0339    
     29000   0.90837877          2000   7881.8177    
     30000   1.0080473           2000   7967.2641    
     31000   1.1091026           2000   7994.9273    
     32000   1.2089522           2000   7937.0672    
     33000   1.3250823           2000   7774.0508    
     34000   1.4426628           2000   7591.1511    
     35000   1.5661195           2000   7357.5032    
     36000   1.6874764           2000   7147.3776    
     37000   1.829505            2000   6980.0719    
     38000   1.9600303           2000   6813.0872    
     39000   2.1189028           2000   6657.0694    
     40000   2.2719792           2000   6505.1356    
     41000   2.4104511           2000   6330.3106    
     42000   2.5515295           2000   6148.0634    
     43000   2.7092384           2000   5933.4805    
     44000   2.8581151           2000   5759.5431    
     45000   3.0086007           2000   5510.4903    
     46000   3.1768919           2000   5333.0986    
     47000   3.3340004           2000   5164.4967    
     48000   3.4836868           2000   5029.022     
     49000   3.6348861           2000   4903.4199    
     50000   3.8132096           2000   4713.8273    
     51000   4.010083            2000   4575.4626    
     52000   4.2045918           2000   4442.7516    
     53000   4.4104443           2000   4266.5697    
     54000   4.6278133           2000   4103.1103    
     55000   4.8517844           2000   3950.2639    
     56000   5.0772792           2000   3857.1316    
     57000   5.3131221           2000   3674.6269    
     58000   5.5427852           2000   3437.1355    
     59000   5.7812103           2000   3240.4341    
     60000   6.0071558           2000   3029.3081    
     61000   6.2048611           2000   2791.9379    
     62000   6.4140486           2000   2573.4972    
     63000   6.6151172           2000   2372.1349    
     64000   6.8631285           2000   2144.1627    
     65000   7.115897            2000   1938.9859    
     66000   7.3733475           2000   1672.701     
     67000   7.6316705           2000   1465.536     
     68000   7.8951503           2000   1246.4766    
     69000   8.1665707           2000   1038.5943    
     70000   8.4507354           2000   839.58786    
     71000   8.703113            2000   646.02146    
     72000   8.9475982           2000   483.21438    
     73000   9.1890104           2000   373.32466    
     74000   9.4125238           2000   300.55256    
     75000   9.6413284           2000   245.59924    
     76000   9.8686867           2000   197.05821    
     77000   10.103879           2000   146.72209    
     78000   10.331916           2000   115.94917    
     79000   10.576455           2000   94.066452    
     80000   10.810176           2000   73.007713    
     81000   11.046101           2000   61.60372     
     82000   11.28057            2000   53.198614    
     83000   11.512861           2000   45.687969    
     84000   11.757065           2000   41.326339    
     85000   11.993281           2000   36.295287    
     86000   12.249168           2000   32.360894    
     87000   12.521397           2000   29.036532    
     88000   12.792714           2000   25.683914    
     89000   13.057227           2000   22.729167    
     90000   13.321581           2000   20.991169    
     91000   13.580366           2000   19.718511    
     92000   13.827194           2000   18.612379    
     93000   14.088791           2000   17.309178    
     94000   14.355917           2000   16.19448     
     95000   14.669321           2000   15.438959    
     96000   14.949101           2000   14.762302    
     97000   15.219878           2000   13.331926    
     98000   15.475892           2000   12.807739    
     99000   15.812328           2000   12.457458    
    100000   16.231903           2000   12.198533    
    101000   16.501986           2000   11.994849    
    102000   16.773133           2000   11.773978    
    103000   17.071123           2000   11.801493    
    104000   17.354573           2000   11.821137    
    105000   17.63187            2000   11.513241    
    106000   17.968194           2000   11.400256    
    107000   18.246402           2000   11.142411    
    108000   18.523247           2000   10.244024    
    109000   18.816286           2000   9.9481979    
    110000   19.123315           2000   9.9122381    
    111000   19.418717           2000   9.3890214    
    112000   19.785293           2000   8.9864493    
    113000   20.072095           2000   9.1645631    
    114000   20.35939            2000   8.9340268    
    115000   20.683086           2000   8.3667612    
    116000   20.989323           2000   8.2962991    
    117000   21.418652           2000   8.4701876    
    118000   21.78648            2000   8.2055907    
    119000   22.065483           2000   7.9001608    
    120000   22.348363           2000   7.6368453    
    121000   22.625107           2000   7.5014896    
    122000   22.925184           2000   7.6341468    
    123000   23.216475           2000   7.1354187    
    124000   23.599565           2000   6.4313829    
    125000   24.200679           2000   5.5083681    
    126000   24.508759           2000   5.3657418    
    127000   24.842348           2000   5.1141085    
    128000   25.383956           2000   5.0809658    
    129000   25.769475           2000   5.1713514    
    130000   26.091624           2000   5.18692      
    131000   26.422822           2000   5.1280169    
    132000   26.727304           2000   5.1707688    
    133000   27.080352           2000   4.9334546    
    134000   27.438625           2000   4.7664846    
    135000   27.792565           2000   4.7942624    
    136000   28.09889            2000   4.9053393    
    137000   28.44579            2000   4.8911882    
    138000   28.747167           2000   4.8299957    
    139000   29.023016           2000   4.7690051    
    140000   29.347281           2000   4.8450576    
    141000   29.637354           2000   4.8507084    
    142000   29.91354            2000   5.0491719    
    143000   30.192329           2000   4.2225541    
    144000   30.476328           2000   4.1568643    
    145000   30.744798           2000   4.081413     
    146000   31.008182           2000   4.157823     
    147000   31.278686           2000   3.7434063    
    148000   31.601373           2000   3.8049227    
    149000   31.968167           2000   3.8946256    
    150000   32.24488            2000   4.0570093    
    151000   32.514476           2000   4.160515     
    152000   32.783913           2000   4.2641953    
    153000   33.064408           2000   4.404973     
    154000   33.365972           2000   4.488999     
    155000   33.775683           2000   3.7011979    
    156000   34.142574           2000   3.5036342    
    157000   34.487849           2000   3.217619     
    158000   35.393485           2000   2.9827454    
    159000   35.86621            2000   2.8607575    
    160000   36.549617           2000   2.3553647    
    161000   37.723076           2000   1.732972     
    162000   38.175685           2000   1.6175333    
    163000   38.775154           2000   1.4125995    
    164000   39.89149            2000   1.3549497    
    165000   40.676047           2000   1.2831589    
    166000   41.158343           2000   1.2021866    
    167000   41.716335           2000   1.1371462    
    168000   42.059508           2000   1.1220476    
    169000   42.552435           2000   1.0891423    
    170000   43.443542           2000   1.0890471    
Loop time of 43.4438 on 8 procs for 150000 steps with 2000 atoms

92.7% CPU use with 8 MPI tasks x no OpenMP threads

MPI task timing breakdown:
Section |  min time  |  avg time  |  max time  |%varavg| %total
---------------------------------------------------------------
Pair    | 5.3624     | 9.4236     | 11.544     |  75.8 | 21.69
Neigh   | 0.10906    | 0.16585    | 0.20218    |   8.3 |  0.38
Comm    | 9.8761     | 10.731     | 11.944     |  24.0 | 24.70
Output  | 0.011401   | 0.017243   | 0.028502   |   4.7 |  0.04
Modify  | 7.1146     | 9.5318     | 11.46      |  47.8 | 21.94
Other   |            | 13.57      |            |       | 31.25

Nlocal:            250 ave         270 max         230 min
Histogram: 1 1 1 0 0 1 1 2 0 1
Nghost:         423.75 ave         582 max         331 min
Histogram: 4 0 0 0 1 1 0 0 0 2
Neighs:        2373.25 ave        2893 max        1925 min
Histogram: 2 0 1 2 0 0 0 1 1 1

Total # of neighbors = 18986
Ave neighs/atom = 9.493
Neighbor list builds = 365
Dangerous builds = 0

# remove "plug" - need to redefine cylinder region & union

region	  	cylreg delete
region		hopreg delete
region	    	cylreg cylinder z ${xc} ${yc} ${radconelo} 		${zcyllo} ${zconelo} side in units box 		open 1 open 2 #Bottom & top are open
region	    	cylreg cylinder z 25 ${yc} ${radconelo} 		${zcyllo} ${zconelo} side in units box 		open 1 open 2 
region	    	cylreg cylinder z 25 25 ${radconelo} 		${zcyllo} ${zconelo} side in units box 		open 1 open 2 
region	    	cylreg cylinder z 25 25 2 		${zcyllo} ${zconelo} side in units box 		open 1 open 2 
region	    	cylreg cylinder z 25 25 2 		0 ${zconelo} side in units box 		open 1 open 2 
region	    	cylreg cylinder z 25 25 2 		0 10 side in units box 		open 1 open 2 

region		hopreg union 2 cylreg conereg

unfix		hopper3
fix		hopper3 all wall/gran/region hertz/history 		${kn} ${kt} ${gamma_n} ${gamma_t} ${coeffFric} 1 region hopreg
fix		hopper3 all wall/gran/region hertz/history 		72592.5925925926 ${kt} ${gamma_n} ${gamma_t} ${coeffFric} 1 region hopreg
fix		hopper3 all wall/gran/region hertz/history 		72592.5925925926 90740.7407407408 ${gamma_n} ${gamma_t} ${coeffFric} 1 region hopreg
fix		hopper3 all wall/gran/region hertz/history 		72592.5925925926 90740.7407407408 903.503751814138 ${gamma_t} ${coeffFric} 1 region hopreg
fix		hopper3 all wall/gran/region hertz/history 		72592.5925925926 90740.7407407408 903.503751814138 451.751875907069 ${coeffFric} 1 region hopreg
fix		hopper3 all wall/gran/region hertz/history 		72592.5925925926 90740.7407407408 903.503751814138 451.751875907069 0.5 1 region hopreg

run		100000
Generated 0 of 0 mixed pair_coeff terms from geometric mixing rule
Per MPI rank memory allocation (min/avg/max) = 12.07 | 12.18 | 12.28 Mbytes
   Step          CPU          Atoms        KinEng    
    170000   0                   2000   1.0890471    
    171000   0.48566543          2000   2.2023147    
    172000   1.1160291           2000   3.2088435    
    173000   1.6741089           2000   4.7880042    
    174000   2.0705832           2000   7.0569266    
    175000   2.3777748           2000   10.047708    
    176000   2.7493887           2000   13.824308    
    177000   3.2103311           2000   18.51269     
    178000   3.6497927           2000   23.795548    
    179000   4.3997033           2000   30.11297     
    180000   4.9397504           2000   37.177923    
    181000   5.4291458           2000   44.793032    
    182000   6.068785            2000   53.675135    
    183000   6.4356916           2000   63.033616    
    184000   6.7642151           2000   73.068966    
    185000   7.0470516           2000   83.783032    
    186000   7.347975            2000   94.566281    
    187000   7.6501986           2000   106.5069     
    188000   7.9671824           2000   119.06662    
    189000   8.4698482           2000   132.20959    
    190000   8.8058613           2000   146.66098    
    191000   9.2451145           2000   162.16973    
    192000   9.5274973           2000   178.48619    
    193000   9.837164            2000   195.53391    
    194000   10.177141           2000   212.34       
    195000   10.55595            2000   230.01082    
    196000   10.820145           2000   249.03661    
    197000   11.166031           2000   270.4047     
    198000   11.777124           2000   293.7253     
    199000   12.071808           2000   318.08161    
    200000   12.347762           2000   342.42909    
    201000   12.637038           2000   367.12121    
    202000   12.913894           2000   392.34103    
    203000   13.249624           2000   418.79597    
    204000   13.553224           2000   446.86534    
    205000   13.807404           2000   475.69665    
    206000   14.094805           2000   506.84844    
    207000   14.407889           2000   539.97682    
    208000   14.679816           2000   573.00942    
    209000   14.960906           2000   607.41223    
    210000   15.239974           2000   642.22745    
    211000   15.548862           2000   677.87428    
    212000   15.821204           2000   712.39193    
    213000   16.162213           2000   746.41293    
    214000   16.505749           2000   783.38215    
    215000   16.743154           2000   822.21396    
    216000   17.022339           2000   862.78482    
    217000   17.335212           2000   904.77229    
    218000   17.609658           2000   948.86685    
    219000   17.8566             2000   994.53331    
    220000   18.131872           2000   1041.0601    
    221000   18.403321           2000   1089.3194    
    222000   18.658219           2000   1138.3596    
WARNING: Lost atoms: original 2000 current 1999 (src/thermo.cpp:487)
    223000   18.914896           1999   1184.8735    
    224000   19.172842           1998   1231.2567    
    225000   19.466306           1998   1280.3541    
    226000   19.802871           1995   1315.6595    
    227000   20.090728           1994   1366.9666    
    228000   20.344444           1991   1404.9585    
    229000   20.601429           1980   1414.0694    
    230000   20.935487           1971   1415.4495    
    231000   21.216249           1964   1431.2649    
    232000   21.513262           1952   1434.0978    
    233000   22.150811           1943   1434.2487    
    234000   22.496547           1931   1437.4654    
    235000   23.180047           1916   1402.2778    
    236000   23.574973           1907   1392.7525    
    237000   24.109176           1894   1355.5726    
    238000   24.792723           1882   1337.0038    
    239000   25.392345           1865   1255.8727    
    240000   25.745748           1843   1178.4522    
    241000   25.983216           1830   1126.413     
    242000   26.217006           1814   1059.451     
    243000   26.566625           1798   1003.883     
    244000   26.854785           1790   982.18252    
    245000   27.074457           1776   918.39825    
    246000   27.297343           1765   895.725      
    247000   27.529289           1758   862.53438    
    248000   27.756951           1745   807.21688    
    249000   28.002397           1737   783.13907    
    250000   28.248629           1723   728.30265    
    251000   28.473693           1717   704.55932    
    252000   28.750489           1709   692.36605    
    253000   29.19687            1703   655.51862    
    254000   29.566126           1699   636.56068    
    255000   29.8016             1693   623.74469    
    256000   30.03513            1690   620.694      
    257000   30.46862            1687   627.33045    
    258000   30.778499           1686   649.01916    
    259000   31.13193            1682   644.2315     
    260000   31.515504           1678   627.64452    
    261000   32.101401           1675   622.37538    
    262000   32.501638           1673   631.15572    
    263000   32.751676           1670   625.64583    
    264000   33.141173           1663   615.61708    
    265000   33.851565           1660   592.63342    
    266000   34.201325           1657   595.47644    
    267000   34.724082           1654   596.80115    
    268000   35.113052           1650   597.60429    
    269000   35.389046           1646   590.69416    
    270000   35.834979           1641   579.26312    
Loop time of 35.8351 on 8 procs for 100000 steps with 1641 atoms

91.0% CPU use with 8 MPI tasks x no OpenMP threads

MPI task timing breakdown:
Section |  min time  |  avg time  |  max time  |%varavg| %total
---------------------------------------------------------------
Pair    | 3.6583     | 6.8541     | 9.859      |  83.1 | 19.13
Neigh   | 0.11657    | 0.13921    | 0.16548    |   4.6 |  0.39
Comm    | 7.8203     | 9.4397     | 10.471     |  31.7 | 26.34
Output  | 0.022218   | 0.032604   | 0.053481   |   5.0 |  0.09
Modify  | 5.9307     | 6.573      | 7.5995     |  21.1 | 18.34
Other   |            | 12.8       |            |       | 35.71

Nlocal:        205.125 ave         222 max         178 min
Histogram: 1 0 0 0 1 2 0 1 2 1
Nghost:         372.75 ave         517 max         282 min
Histogram: 4 0 0 0 0 1 1 0 1 1
Neighs:        1827.38 ave        2330 max        1200 min
Histogram: 2 0 1 0 1 0 0 0 1 3

Total # of neighbors = 14619
Ave neighs/atom = 8.9085923
Neighbor list builds = 238
Dangerous builds = 0
Total wall time: 0:01:23
