LAMMPS (4 Jan 2019)
# pouring spheres into container box

units		lj
atom_style      sphere
boundary        f f f
dimension	3
comm_modify     vel yes

region          box block -10 10 -10 10 -10 10 units box
create_box      2 box
Created orthogonal box = (-10 -10 -10) to (10 10 10)
  2 by 2 by 2 MPI processor grid

pair_style	hybrid gran/hooke 4000.0 NULL 100.0 NULL 0.5 1
pair_coeff	* * gran/hooke

region          container block -6 6 -6 6 -6 6 units box
fix		container all wall/gran/region hooke/history 		4000.0 NULL 100.0 NULL 0.5 1 region container

neighbor	0.3 bin
neigh_modify	delay 0 every 1 check yes

fix             2 all nve/sphere
fix		3 all gravity 1.0 vector 0 0 -1

region          slab block -2 2 -2 2 -2 2 units box
fix             ins all pour 100 2 4767548 vol 0.4 10 	        diam one 1.0 region slab ignore
Particle insertion: 48 every 566 steps, 100 by step 1133

timestep	0.005

compute         1 all temp
compute_modify  1 dynamic/dof yes

compute         2 all temp/sphere
compute_modify  2 dynamic/dof yes

thermo		100
thermo_style	custom step atoms temp c_1 c_2 press
thermo_modify   lost ignore
compute_modify  thermo_temp dynamic/dof yes

#dump		2 all image 100 image.*.jpg type type #		zoom 1.4 adiam 1.0 box no 0.0 axes yes 0.9 0.03
#dump_modify	2 pad 5

run	        5000
Neighbor list info ...
  update every 1 steps, delay 0 steps, check yes
  max neighbors/atom: 2000, page size: 100000
  master list distance cutoff = 1.3
  ghost atom cutoff = 1.3
  binsize = 0.65, bins = 31 31 31
  1 neighbor lists, perpetual/occasional/extra = 1 0 0
  (1) pair gran/hooke, perpetual
      attributes: half, newton on, size
      pair build: half/size/bin/newton
      stencil: half/bin/3d/newton
      bin: standard
Per MPI rank memory allocation (min/avg/max) = 0.4658 | 0.4658 | 0.4658 Mbytes
Step Atoms Temp c_1 c_2 Press 
       0        0            0            0            0            0 
     100       21   0.54270729   0.54270729   0.26473526 0.0013567682 
     200       21   0.87606961   0.87606961   0.42735103  0.002190174 
     300       21    1.1428374    1.1428374   0.55748167 0.0028570936 
     400       21    1.3543103    1.3543103   0.66829516 0.0033857758 
     500       21    1.0677786    1.0677786   0.53582407 0.0045048164 
     600       56    0.6744286    0.6744286    0.3502938 0.0047464584 
     700       56   0.75569283   0.75569283   0.39779462 0.0051953882 
     800       56   0.61597505   0.61597505   0.32943642 0.0086022783 
     900       56   0.65260802   0.65260802   0.34474044 0.0059298996 
    1000       56   0.51624952   0.51624952   0.28326898 0.0067827337 
    1100       56   0.46050076   0.46050076   0.25656319 0.0061891094 
    1200       81   0.39112346   0.39112346   0.21690172 0.0086559316 
    1300       81   0.33302617   0.33302617   0.19109398 0.0033381104 
    1400       81    0.3933533    0.3933533   0.21221692  0.004135078 
    1500       81   0.35495297   0.35495297   0.19925984 0.0037374946 
    1600       81   0.34150606   0.34150606   0.19025811 0.0053492835 
    1700      100    0.2561647    0.2561647   0.14186278 0.0090767057 
    1800      100   0.21124278   0.21124278   0.12154878  0.002854576 
    1900      100   0.21793955   0.21793955   0.12173867 0.0029049174 
    2000      100   0.25530858   0.25530858   0.13892272 0.0035528023 
    2100      100   0.24671805   0.24671805   0.13687782 0.0076812359 
    2200      100   0.22465212   0.22465212   0.12513612 0.0042526356 
    2300      100   0.19362807   0.19362807   0.10914276 0.0061175329 
    2400      100  0.061626119  0.061626119  0.045905998 0.0010393833 
    2500      100  0.052690759  0.052690759  0.038879852 0.0018543954 
    2600      100  0.037255003  0.037255003  0.028338411 0.0027662125 
    2700      100  0.033416714  0.033416714  0.024551182 0.00046728251 
    2800      100  0.019619607  0.019619607  0.014620124 0.00064532626 
    2900      100  0.012318961  0.012318961 0.0098208448 0.00033480134 
    3000      100  0.010971257  0.010971257 0.0088123088 0.00036702446 
    3100      100 0.0093910541 0.0093910541 0.0073842799 0.00046420148 
    3200      100 0.0081448409 0.0081448409 0.0061523882 0.00030522724 
    3300      100 0.0050446059 0.0050446059 0.0042610793 0.00029935811 
    3400      100 0.0031394382 0.0031394382 0.0027207174 0.00012037532 
    3500      100 0.0024103412 0.0024103412 0.0022038383 0.00013235483 
    3600      100 0.0018304338 0.0018304338 0.0017960733 0.00016230375 
    3700      100 0.0016576698 0.0016576698  0.001725828 0.00033384848 
    3800      100 0.0011668119 0.0011668119 0.0012638563 0.00012796108 
    3900      100 0.0010334453 0.0010334453    0.0010709 8.8355018e-05 
    4000      100 0.00092098613 0.00092098613 0.00095867664 8.6928292e-05 
    4100      100 0.00077741788 0.00077741788 0.00086343083 8.531061e-05 
    4200      100 0.00090624536 0.00090624536 0.00093629367 7.097543e-05 
    4300      100 0.0015377557 0.0015377557 0.0012224184 8.1352139e-05 
    4400      100 0.00073827123 0.00073827123 0.00081258429 9.0840597e-05 
    4500      100 0.00058725112 0.00058725112 0.00071099293 2.9781626e-05 
    4600      100 0.00056081424 0.00056081424 0.00068736185 3.7799274e-05 
    4700      100 0.00053268625 0.00053268625 0.00064033089 5.5713082e-05 
    4800      100 0.00048794479 0.00048794479 0.00059807998  6.38886e-05 
    4900      100   0.00038443   0.00038443 0.0005128873 3.8146705e-05 
    5000      100 0.00031406634 0.00031406634 0.00043676843 3.0866833e-05 
Loop time of 0.0880581 on 8 procs for 5000 steps with 100 atoms

Performance: 24529259.138 tau/day, 56780.692 timesteps/s
97.1% CPU use with 8 MPI tasks x no OpenMP threads

MPI task timing breakdown:
Section |  min time  |  avg time  |  max time  |%varavg| %total
---------------------------------------------------------------
Pair    | 0.00062682 | 0.0015951  | 0.0029294  |   2.4 |  1.81
Neigh   | 0.0025373  | 0.0032597  | 0.0038801  |   1.0 |  3.70
Comm    | 0.026046   | 0.039024   | 0.054504   |   5.7 | 44.32
Output  | 0.0017867  | 0.0019857  | 0.002125   |   0.3 |  2.26
Modify  | 0.0027262  | 0.0079665  | 0.013428   |   5.5 |  9.05
Other   |            | 0.03423    |            |       | 38.87

Nlocal:    12.5 ave 26 max 0 min
Histogram: 4 0 0 0 0 0 0 0 0 4
Nghost:    4.625 ave 11 max 0 min
Histogram: 4 0 0 0 0 0 0 2 0 2
Neighs:    20.125 ave 46 max 0 min
Histogram: 4 0 0 0 0 0 0 1 1 2

Total # of neighbors = 161
Ave neighs/atom = 1.61
Neighbor list builds = 310
Dangerous builds = 0

region          container delete
variable        theta equal (step-5000)*(4.0*PI/5000)
region          container block -6 6 -6 6 -6 6 units box                 rotate v_theta 0 0 0 0 0 1
run	        5000
Per MPI rank memory allocation (min/avg/max) = 5.591 | 5.7 | 5.716 Mbytes
Step Atoms Temp c_1 c_2 Press 
    5000      100 0.00031406634 0.00031406634 0.00043676843 3.0652864e-05 
    5100      100   0.59452133   0.59452133   0.32484006 0.0084983838 
    5200      100   0.68014629   0.68014629   0.36510971 0.0097013019 
    5300      100   0.76235195   0.76235195   0.40097933  0.010800412 
    5400      100   0.83241118   0.83241118   0.43509671  0.010715241 
    5500      100   0.88532652   0.88532652   0.45718387  0.015091503 
    5600      100   0.97596663   0.97596663   0.50041519  0.014094544 
    5700      100    1.0272145    1.0272145   0.52463582  0.014326993 
    5800      100    1.0726262    1.0726262   0.54483618  0.019673404 
    5900      100    1.1272685    1.1272685     0.570387  0.018177393 
    6000      100    1.1746651    1.1746651   0.59216017  0.019479095 
    6100      100    1.2085564    1.2085564   0.60890852  0.018981965 
    6200      100    1.2331684    1.2331684   0.62132595  0.019199228 
    6300      100    1.2713166    1.2713166   0.63841933  0.019804861 
    6400      100    1.2803362    1.2803362   0.64246136  0.021836513 
    6500      100    1.3027647    1.3027647   0.65333198  0.021465595 
    6600      100    1.2944087    1.2944087   0.64850012  0.020477758 
    6700      100    1.3127332    1.3127332   0.65706429  0.020896514 
    6800      100     1.315244     1.315244   0.65807526  0.021324073 
    6900      100    1.3152771    1.3152771   0.65829019  0.021441605 
    7000      100     1.316645     1.316645   0.65906627  0.021804557 
    7100      100    1.3216443    1.3216443   0.66134915  0.021415967 
    7200      100    1.3292884    1.3292884   0.66480955  0.021743464 
    7300      100    1.3336852    1.3336852   0.66717319  0.022441987 
    7400      100    1.3322891    1.3322891    0.6664358  0.023476551 
    7500      100    1.3395157    1.3395157   0.66955718  0.022114193 
    7600      100    1.3394324    1.3394324   0.66932913  0.021847328 
    7700      100      1.34637      1.34637   0.67265441  0.021759989 
    7800      100    1.3489764    1.3489764   0.67406935  0.021753715 
    7900      100    1.3513621    1.3513621   0.67518108  0.021882924 
    8000      100    1.3516162    1.3516162    0.6753888  0.021769809 
    8100      100    1.3524492    1.3524492   0.67589632  0.021638853 
    8200      100    1.3552972    1.3552972   0.67770366  0.021822074 
    8300      100    1.3495557    1.3495557   0.67453365  0.021830305 
    8400      100      1.34949      1.34949   0.67454352  0.021822456 
    8500      100    1.3506598    1.3506598   0.67520995   0.02194704 
    8600      100    1.3526199    1.3526199   0.67632456  0.021974647 
    8700      100    1.3555807    1.3555807   0.67789345  0.021830882 
    8800      100    1.3525582    1.3525582   0.67592821  0.022158968 
    8900      100    1.3534663    1.3534663   0.67633917  0.022160404 
    9000      100    1.3535998    1.3535998   0.67646664  0.022118618 
    9100      100    1.3535681    1.3535681    0.6764559  0.021995147 
    9200      100    1.3543409    1.3543409   0.67691122  0.022194672 
    9300      100     1.354991     1.354991    0.6773564  0.022190751 
    9400      100    1.3552259    1.3552259   0.67764272  0.022184904 
    9500      100    1.3558517    1.3558517   0.67756591   0.02235061 
    9600      100    1.3558152    1.3558152   0.67715226  0.022136242 
    9700      100    1.3601012    1.3601012   0.67898168  0.022091642 
    9800      100    1.3616367    1.3616367   0.67969547  0.022220057 
    9900      100    1.3640976    1.3640976   0.68084081  0.022505051 
   10000      100    1.3652091    1.3652091   0.68138717  0.022395845 
Loop time of 0.133677 on 8 procs for 5000 steps with 100 atoms

Performance: 16158335.737 tau/day, 37403.555 timesteps/s
99.7% CPU use with 8 MPI tasks x no OpenMP threads

MPI task timing breakdown:
Section |  min time  |  avg time  |  max time  |%varavg| %total
---------------------------------------------------------------
Pair    | 0.00053745 | 0.005432   | 0.010703   |   6.5 |  4.06
Neigh   | 0.0043102  | 0.0062592  | 0.0082934  |   2.4 |  4.68
Comm    | 0.0088677  | 0.02464    | 0.043352   |   9.7 | 18.43
Output  | 0.0016003  | 0.0020973  | 0.0025663  |   1.0 |  1.57
Modify  | 0.0095939  | 0.032724   | 0.056499   |  12.6 | 24.48
Other   |            | 0.06252    |            |       | 46.77

Nlocal:    12.5 ave 29 max 0 min
Histogram: 4 0 0 0 0 0 1 1 0 2
Nghost:    3.25 ave 9 max 0 min
Histogram: 4 0 0 1 0 0 1 0 1 1
Neighs:    25 ave 60 max 0 min
Histogram: 4 0 0 0 0 0 1 1 0 2

Total # of neighbors = 200
Ave neighs/atom = 2
Neighbor list builds = 627
Dangerous builds = 0

region          container delete
region          container block -6 6 -6 6 -6 6 units box
run             5000
Per MPI rank memory allocation (min/avg/max) = 5.591 | 5.7 | 5.716 Mbytes
Step Atoms Temp c_1 c_2 Press 
   10000      100    1.3652091    1.3652091   0.68138717   0.02239382 
   10100      100   0.22572047   0.22572047    0.1327492  0.018119135 
   10200      100    0.1253408    0.1253408  0.086362599 0.0017749155 
   10300      100  0.085285244  0.085285244  0.067941246 0.0030399982 
   10400      100  0.053579694  0.053579694  0.046458445 0.0016503503 
   10500      100  0.043446719  0.043446719  0.037585184 0.00064820243 
   10600      100  0.030027646  0.030027646  0.026105076 0.00084942595 
   10700      100  0.023018257  0.023018257  0.020229824 0.0015097373 
   10800      100  0.017534049  0.017534049  0.015277409 0.00029075278 
   10900      100  0.014373416  0.014373416   0.01213239 0.00015993943 
   11000      100  0.012216935  0.012216935  0.010411571 0.00031788175 
   11100      100  0.010118817  0.010118817 0.0087863779 0.00068802498 
   11200      100 0.0086538138 0.0086538138 0.0077319897 0.00076821474 
   11300      100 0.0081258442 0.0081258442 0.0073068016 0.00012250839 
   11400      100 0.0070957741 0.0070957741 0.0064434879 0.0002988394 
   11500      100 0.0060594953 0.0060594953 0.0054881444 0.00042561251 
   11600      100 0.0052886068 0.0052886068 0.0048607864 0.00018477775 
   11700      100 0.0046552851 0.0046552851  0.004308239 0.00032049371 
   11800      100 0.0039542369 0.0039542369 0.0037352396 8.310861e-05 
   11900      100 0.0033440812 0.0033440812 0.0031726064 6.2265915e-05 
   12000      100  0.003202073  0.003202073 0.0029885276 8.318072e-05 
   12100      100 0.0029228584 0.0029228584  0.002711817 0.00013556743 
   12200      100  0.003147211  0.003147211 0.0027405231 3.7490969e-05 
   12300      100 0.0022819717 0.0022819717 0.0022711782 7.107851e-05 
   12400      100 0.0019655811 0.0019655811 0.0020415295 2.4324066e-05 
   12500      100 0.0017500585 0.0017500585 0.0018398365 2.1656974e-05 
   12600      100 0.0016979706 0.0016979706 0.0017984246 0.00015910769 
   12700      100 0.0015014143 0.0015014143 0.0016326626 7.183427e-05 
   12800      100 0.0014028372 0.0014028372 0.0015572368 2.2965772e-05 
   12900      100 0.0013161444 0.0013161444 0.0014819568 2.0445303e-05 
   13000      100 0.0012570491 0.0012570491 0.0014078109 2.4506379e-05 
   13100      100 0.0011793075 0.0011793075 0.0013456381 1.9774375e-05 
   13200      100 0.0011520075 0.0011520075 0.0013226134 1.4539794e-05 
   13300      100 0.0011106464 0.0011106464  0.001284513 8.4199482e-06 
   13400      100 0.0011066519 0.0011066519 0.0012811204 1.3694817e-05 
   13500      100 0.00098418754 0.00098418754 0.0011854853 1.2071398e-05 
   13600      100 0.00097969875 0.00097969875 0.0011768863 2.1715853e-05 
   13700      100 0.00095635469 0.00095635469 0.0011570924 1.6330543e-05 
   13800      100 0.00090105539 0.00090105539 0.0010782645 1.115056e-05 
   13900      100 0.00088694848 0.00088694848 0.0010660717 1.0975987e-05 
   14000      100 0.00087529863 0.00087529863 0.0010568672 1.4866277e-05 
   14100      100 0.0008375574 0.0008375574 0.0010276649 1.4920335e-05 
   14200      100 0.00082349529 0.00082349529  0.001011564 1.0190754e-05 
   14300      100 0.00073839965 0.00073839965 0.00093878207 1.0631374e-05 
   14400      100 0.00069638785 0.00069638785 0.00090251246 9.7718742e-06 
   14500      100 0.00068341533 0.00068341533 0.00089470609 9.2686743e-06 
   14600      100 0.00067060515 0.00067060515 0.00084006032 8.2987387e-06 
   14700      100 0.00064410325 0.00064410325 0.00081023143 2.1160138e-05 
   14800      100 0.00060339473 0.00060339473 0.00074920466 8.5257526e-06 
   14900      100 0.0005701982 0.0005701982 0.00072338411 7.0562027e-06 
   15000      100 0.00054223569 0.00054223569 0.00070007105 6.7101666e-06 
Loop time of 0.0733805 on 8 procs for 5000 steps with 100 atoms

Performance: 29435601.776 tau/day, 68137.967 timesteps/s
100.0% CPU use with 8 MPI tasks x no OpenMP threads

MPI task timing breakdown:
Section |  min time  |  avg time  |  max time  |%varavg| %total
---------------------------------------------------------------
Pair    | 0.00049629 | 0.0016092  | 0.0030764  |   2.8 |  2.19
Neigh   | 0.00062751 | 0.00093721 | 0.0012865  |   0.0 |  1.28
Comm    | 0.0021124  | 0.01861    | 0.037726   |  12.1 | 25.36
Output  | 0.0015866  | 0.0018951  | 0.0021419  |   0.6 |  2.58
Modify  | 0.00063659 | 0.0086686  | 0.019279   |   8.8 | 11.81
Other   |            | 0.04166    |            |       | 56.77

Nlocal:    12.5 ave 28 max 0 min
Histogram: 4 0 0 0 0 0 0 2 0 2
Nghost:    6.25 ave 16 max 0 min
Histogram: 4 0 0 0 0 1 0 1 1 1
Neighs:    20.375 ave 51 max 0 min
Histogram: 4 0 0 0 0 1 0 1 0 2

Total # of neighbors = 163
Ave neighs/atom = 1.63
Neighbor list builds = 91
Dangerous builds = 0

region          container delete
variable        theta equal (step-15000)*(4.0*PI/5000)
region          container block -6 6 -6 6 -6 6 units box                 rotate v_theta 0 0 0 1 1 1
run	        5000
Per MPI rank memory allocation (min/avg/max) = 5.591 | 5.7 | 5.716 Mbytes
Step Atoms Temp c_1 c_2 Press 
   15000      100 0.00054223569 0.00054223569 0.00070007105 6.7101666e-06 
   15100      100    1.0542219    1.0542219   0.67803473   0.01697429 
   15200      100    1.0860613    1.0860613    0.6949689  0.014674361 
   15300      100    1.1211343    1.1211343   0.71511926  0.017794688 
   15400      100    1.4169454    1.4169454   0.92052747   0.01901531 
   15500      100    1.6388939    1.6388939     1.023031  0.027175903 
   15600      100    1.8822477    1.8822477    1.1492827  0.032142767 
   15700      100      1.97649      1.97649    1.1802969  0.031060486 
   15800      100    2.0764827    2.0764827    1.2133925   0.02891586 
   15900      100    2.3435729    2.3435729    1.3084274  0.037168575 
   16000      100    2.3594375    2.3594375    1.3334492  0.036776134 
   16100      100    2.4854008    2.4854008    1.3745834  0.032710841 
   16200      100    2.6482548    2.6482548    1.4486402   0.03603561 
   16300      100    2.6691274    2.6691274    1.4571851  0.037814353 
   16400      100    2.8057357    2.8057357    1.5091805  0.036147804 
   16500      100     2.862244     2.862244    1.5363589  0.035930329 
   16600      100    3.0319428    3.0319428    1.6285451  0.037544614 
   16700      100    3.1180635    3.1180635    1.6767443  0.044326586 
   16800      100    3.1446535    3.1446535    1.7042707  0.040134328 
   16900      100    3.4598788    3.4598788    1.8424421  0.046277139 
   17000      100    3.6232889    3.6232889    1.9200907   0.04957769 
   17100      100    3.4649994    3.4649994    1.8342959  0.054984348 
   17200      100    3.5437425    3.5437425    1.8846219  0.053730274 
   17300      100    3.5472175    3.5472175    1.8942714  0.050410304 
   17400      100    3.6544743    3.6544743    1.9527854  0.052656065 
   17500      100    3.7285834    3.7285834    1.9896132  0.058265988 
   17600      100    3.6611076    3.6611076    1.9546389  0.055203117 
   17700      100    3.5527608    3.5527608    1.8980591  0.048498622 
   17800      100    3.3815175    3.3815175    1.8151342  0.057436365 
   17900      100    3.5563405    3.5563405    1.9224051  0.049499795 
   18000      100    3.4104984    3.4104984    1.8528243  0.045374785 
   18100      100    3.4193758    3.4193758    1.8501935  0.042463214 
   18200      100    3.4754762    3.4754762    1.8795295  0.045960195 
   18300      100     3.463003     3.463003    1.8773034   0.04787723 
   18400      100    3.6751452    3.6751452    1.9820548   0.05399967 
   18500      100    3.7456977    3.7456977    2.0171682  0.050669846 
   18600      100    3.6760854    3.6760854    1.9868155   0.05161033 
   18700      100    3.8283083    3.8283083    2.0754466  0.055988823 
   18800      100    3.9604259    3.9604259    2.1310834  0.052347817 
   18900      100    3.8725694    3.8725694    2.0725998   0.06225271 
   19000      100    4.0502442    4.0502442    2.1564511  0.055347488 
   19100      100    4.0742522    4.0742522    2.1596606  0.055085893 
   19200      100    4.0339149    4.0339149    2.1490824  0.061026014 
   19300      100    3.9424719    3.9424719    2.1030818  0.057547228 
   19400      100    4.0681575    4.0681575    2.1570845  0.059206902 
   19500      100    3.9191986    3.9191986    2.0923346  0.050821385 
   19600      100    3.8466904    3.8466904    2.0610744   0.05694776 
   19700      100    3.6661468    3.6661468    2.0001846  0.057971348 
   19800      100    3.6790099    3.6790099    1.9980888  0.048668086 
   19900      100     3.598258     3.598258    1.9569684  0.057907315 
   20000      100    3.6055455    3.6055455    1.9643904  0.050329576 
Loop time of 0.156353 on 8 procs for 5000 steps with 100 atoms

Performance: 13814869.783 tau/day, 31978.865 timesteps/s
99.9% CPU use with 8 MPI tasks x no OpenMP threads

MPI task timing breakdown:
Section |  min time  |  avg time  |  max time  |%varavg| %total
---------------------------------------------------------------
Pair    | 0.0010088  | 0.0026076  | 0.0046743  |   2.1 |  1.67
Neigh   | 0.0072358  | 0.010363   | 0.012803   |   1.7 |  6.63
Comm    | 0.014293   | 0.045851   | 0.056777   |   5.8 | 29.33
Output  | 0.0019755  | 0.0022378  | 0.0027851  |   0.5 |  1.43
Modify  | 0.011479   | 0.029957   | 0.043044   |   5.5 | 19.16
Other   |            | 0.06534    |            |       | 41.79

Nlocal:    12.5 ave 26 max 0 min
Histogram: 3 0 0 1 1 0 0 0 0 3
Nghost:    3.5 ave 8 max 0 min
Histogram: 2 0 1 1 0 1 1 1 0 1
Neighs:    17.375 ave 47 max 0 min
Histogram: 3 2 0 0 0 0 0 1 0 2

Total # of neighbors = 139
Ave neighs/atom = 1.39
Neighbor list builds = 927
Dangerous builds = 0

region          container delete
region          container block -6 6 -6 6 -6 6 units box
run             5000
Per MPI rank memory allocation (min/avg/max) = 5.716 | 5.716 | 5.716 Mbytes
Step Atoms Temp c_1 c_2 Press 
   20000      100    3.6055455    3.6055455    1.9643904  0.049292129 
   20100      100    1.0439182    1.0439182   0.65082699  0.014987974 
   20200      100   0.96537065   0.96537065   0.59074154  0.012314382 
   20300      100   0.89789122   0.89789122   0.55031965  0.011138809 
   20400      100   0.89320788   0.89320788   0.53509418  0.011042861 
   20500      100    1.0299694    1.0299694   0.59923225  0.012863585 
   20600      100    1.0855504    1.0855504    0.6278292  0.014233141 
   20700      100    1.0909553    1.0909553   0.62479305  0.013961267 
   20800      100    1.0449999    1.0449999   0.59088345  0.014557174 
   20900      100   0.84642476   0.84642476   0.49329883  0.010961329 
   21000      100   0.57269133   0.57269133   0.34043546 0.0075035724 
   21100      100   0.41066112   0.41066112   0.24564016 0.0058653698 
   21200      100    0.3085391    0.3085391   0.19183974 0.0043526851 
   21300      100    0.1573336    0.1573336    0.1129705 0.0028603727 
   21400      100   0.11357927   0.11357927  0.086645812 0.0019796404 
   21500      100  0.088262244  0.088262244  0.064533548 0.0029900532 
   21600      100  0.054455444  0.054455444  0.043003722 0.0023118682 
   21700      100  0.046252045  0.046252045  0.036472334 0.00086195044 
   21800      100  0.029045537  0.029045537  0.023996609 0.00083796086 
   21900      100  0.025873972  0.025873972  0.020947119 0.0010729919 
   22000      100  0.027846696  0.027846696  0.021010571 0.00060652189 
   22100      100   0.02164787   0.02164787  0.016974258 0.00042177615 
   22200      100  0.018410638  0.018410638  0.014824894 0.0005621622 
   22300      100  0.013465034  0.013465034  0.011380404 0.00050153501 
   22400      100  0.013333124  0.013333124  0.010885839 0.00056887571 
   22500      100  0.010834658  0.010834658 0.0085315909 0.0015910725 
   22600      100 0.0075887157 0.0075887157 0.0062775191 0.00026912866 
   22700      100  0.006544549  0.006544549 0.0055229875 0.00025169733 
   22800      100   0.00620473   0.00620473  0.005157683 0.00044436776 
   22900      100 0.0068637778 0.0068637778 0.0053903599 0.00017407468 
   23000      100 0.0048204734 0.0048204734 0.0041215152 0.00025445221 
   23100      100 0.0039287058 0.0039287058 0.0033924688 0.00041773435 
   23200      100 0.0034425565 0.0034425565 0.0029478834 0.00017932248 
   23300      100 0.0029296882 0.0029296882   0.00259452 0.00020482414 
   23400      100 0.0027079482 0.0027079482 0.0024188233 0.0001804342 
   23500      100 0.0027774705 0.0027774705  0.002381806 0.00023391471 
   23600      100 0.0026880958 0.0026880958 0.0022461734 0.00016158839 
   23700      100 0.0020275356 0.0020275356 0.0018441655 9.0585721e-05 
   23800      100  0.001758489  0.001758489  0.001608308 0.00032578073 
   23900      100 0.0016454075 0.0016454075 0.0014806652 3.856672e-05 
   24000      100 0.0019119221 0.0019119221  0.001582232 4.9163225e-05 
   24100      100 0.0011462875 0.0011462875 0.0010801265 0.00033375014 
   24200      100 0.0011441277 0.0011441277 0.0010702869 5.905385e-05 
   24300      100 0.0012942476 0.0012942476 0.0011387397 6.0074602e-05 
   24400      100 0.00098005157 0.00098005157 0.00088897841 5.390177e-05 
   24500      100 0.00093352227 0.00093352227 0.00083607988 4.206313e-05 
   24600      100 0.00089370114 0.00089370114 0.0007975573 3.2842164e-05 
   24700      100 0.0008401604 0.0008401604 0.0007464721 2.7553806e-05 
   24800      100 0.00075961049 0.00075961049 0.00069181137 2.6407577e-05 
   24900      100 0.00066791994 0.00066791994 0.00061159815 3.0053103e-05 
   25000      100 0.00062597451 0.00062597451 0.00055516047 8.0387956e-05 
Loop time of 0.0735495 on 8 procs for 5000 steps with 100 atoms

Performance: 29367975.333 tau/day, 67981.424 timesteps/s
99.9% CPU use with 8 MPI tasks x no OpenMP threads

MPI task timing breakdown:
Section |  min time  |  avg time  |  max time  |%varavg| %total
---------------------------------------------------------------
Pair    | 0.00064868 | 0.0019267  | 0.0039595  |   2.8 |  2.62
Neigh   | 0.002279   | 0.003099   | 0.0037669  |   0.7 |  4.21
Comm    | 0.010367   | 0.023844   | 0.039457   |   7.3 | 32.42
Output  | 0.0016567  | 0.0018896  | 0.0020997  |   0.4 |  2.57
Modify  | 0.0010079  | 0.0078094  | 0.015804   |   7.0 | 10.62
Other   |            | 0.03498    |            |       | 47.56

Nlocal:    12.5 ave 28 max 0 min
Histogram: 4 0 0 0 0 0 0 1 1 2
Nghost:    5.25 ave 13 max 0 min
Histogram: 4 0 0 0 0 1 0 1 0 2
Neighs:    19.75 ave 47 max 0 min
Histogram: 4 0 0 0 0 0 0 2 1 1

Total # of neighbors = 158
Ave neighs/atom = 1.58
Neighbor list builds = 282
Dangerous builds = 0
Total wall time: 0:00:00
