LAMMPS (5 May 2020)
variable	name string mixer

thermo_modify	flush yes
variable	seed equal 14314

###############################################
# Particle parameters
################################################

variable	rlo equal 0.3
variable	rhi equal 0.6
variable	dlo equal 2.0*${rlo}
variable	dlo equal 2.0*0.3
variable	dhi equal 2.0*${rhi}
variable	dhi equal 2.0*0.6
variable 	skin equal ${rhi}
variable 	skin equal 0.6

variable	coeffRes equal 0.1
variable	coeffFric equal 0.5

variable	kn equal 10^5
variable	kt equal 0.2*${kn}
variable	kt equal 0.2*100000

variable	gravity equal 1.0
variable	density equal 1.0

variable	min_mass equal ${density}*4.0/3.0*PI*${rlo}*${rlo}*${rlo}
variable	min_mass equal 1*4.0/3.0*PI*${rlo}*${rlo}*${rlo}
variable	min_mass equal 1*4.0/3.0*PI*0.3*${rlo}*${rlo}
variable	min_mass equal 1*4.0/3.0*PI*0.3*0.3*${rlo}
variable	min_mass equal 1*4.0/3.0*PI*0.3*0.3*0.3
variable	a equal (-2.0*log(${coeffRes})/PI)^2
variable	a equal (-2.0*log(0.1)/PI)^2
variable        gamma_n equal sqrt($a*2*${kn}/${min_mass}/(1+0.25*$a))
variable        gamma_n equal sqrt(0.405284734569351*2*${kn}/${min_mass}/(1+0.25*$a))
variable        gamma_n equal sqrt(0.405284734569351*2*100000/${min_mass}/(1+0.25*$a))
variable        gamma_n equal sqrt(0.405284734569351*2*100000/0.113097335529233/(1+0.25*$a))
variable        gamma_n equal sqrt(0.405284734569351*2*100000/0.113097335529233/(1+0.25*0.405284734569351))
variable        gamma_t equal ${gamma_n}*0.5
variable        gamma_t equal 806.699778405191*0.5

variable	tcol equal PI/sqrt(2*${kn}/${min_mass}-${gamma_n}/4.0)
variable	tcol equal PI/sqrt(2*100000/${min_mass}-${gamma_n}/4.0)
variable	tcol equal PI/sqrt(2*100000/0.113097335529233-${gamma_n}/4.0)
variable	tcol equal PI/sqrt(2*100000/0.113097335529233-806.699778405191/4.0)

variable	dt equal ${tcol}*0.02
variable	dt equal 0.00236257621510454*0.02
timestep	${dt}
timestep	4.72515243020908e-05

###############################################

variable	dumpfreq equal 1000
variable	logfreq equal 1000

newton 		on
atom_style	sphere

boundary	p p f

region		boxreg block 0 20 0 20 0 20
create_box	1 boxreg
Created orthogonal box = (0 0 0) to (20 20 20)
  2 by 2 by 2 MPI processor grid

pair_style	gran/hertz/history 		${kn} ${kt} ${gamma_n} ${gamma_t} ${coeffFric} 1
pair_style	gran/hertz/history 		100000 ${kt} ${gamma_n} ${gamma_t} ${coeffFric} 1
pair_style	gran/hertz/history 		100000 20000 ${gamma_n} ${gamma_t} ${coeffFric} 1
pair_style	gran/hertz/history 		100000 20000 806.699778405191 ${gamma_t} ${coeffFric} 1
pair_style	gran/hertz/history 		100000 20000 806.699778405191 403.349889202595 ${coeffFric} 1
pair_style	gran/hertz/history 		100000 20000 806.699778405191 403.349889202595 0.5 1
pair_coeff	* *

neighbor        ${skin} bin
neighbor        0.6 bin
thermo 		${logfreq}
thermo 		1000

comm_style	brick
comm_modify 	mode multi group all vel yes
balance		1.1 shift xyz 20 1.1
Neighbor list info ...
  update every 1 steps, delay 10 steps, check yes
  max neighbors/atom: 2000, page size: 100000
  master list distance cutoff = 0
  ghost atom cutoff = 0
  binsize = 20, bins = 1 1 1
  1 neighbor lists, perpetual/occasional/extra = 1 0 0
  (1) pair gran/hertz/history, perpetual
      attributes: half, newton on, size, history
      pair build: half/size/bin/newton
      stencil: half/bin/3d/newton
      bin: standard
WARNING: Communication cutoff is 0.0. No ghost atoms will be generated. Atoms may get lost. (src/comm_brick.cpp:166)
fix		bal all balance 10000 1.1 shift xyz 20 1.01

####################### Options specific to pouring #########################

region	     	insreg cylinder z 10 10 8 10 18 side in units box
region	    	cylreg cylinder z 10 10 10 0 20 side in units box

variable	theta equal (step/400000)*2*PI

region          b1 block 2 18 9 11 0 4 side out                 rotate v_theta 10 10 0 0 0 1 units box
region          b2 block 9 11 2 18 0 3.99999 side out                 rotate v_theta 10 10 0 0 0 1 units box

region		mixer intersect 3 cylreg b1 b2 side in

fix		grav all gravity ${gravity} vector 0 0 -1
fix		grav all gravity 1 vector 0 0 -1
fix		1 all nve/sphere

fix		mixwall all wall/gran/region hertz/history                 ${kn} ${kt} ${gamma_n} ${gamma_t} ${coeffFric} 1 region mixer
fix		mixwall all wall/gran/region hertz/history                 100000 ${kt} ${gamma_n} ${gamma_t} ${coeffFric} 1 region mixer
fix		mixwall all wall/gran/region hertz/history                 100000 20000 ${gamma_n} ${gamma_t} ${coeffFric} 1 region mixer
fix		mixwall all wall/gran/region hertz/history                 100000 20000 806.699778405191 ${gamma_t} ${coeffFric} 1 region mixer
fix		mixwall all wall/gran/region hertz/history                 100000 20000 806.699778405191 403.349889202595 ${coeffFric} 1 region mixer
fix		mixwall all wall/gran/region hertz/history                 100000 20000 806.699778405191 403.349889202595 0.5 1 region mixer

fix		ins all pour 1000 1 42424 region insreg 		diam range ${dlo} ${dhi} dens ${density} ${density}
fix		ins all pour 1000 1 42424 region insreg 		diam range 0.6 ${dhi} dens ${density} ${density}
fix		ins all pour 1000 1 42424 region insreg 		diam range 0.6 1.2 dens ${density} ${density}
fix		ins all pour 1000 1 42424 region insreg 		diam range 0.6 1.2 dens 1 ${density}
fix		ins all pour 1000 1 42424 region insreg 		diam range 0.6 1.2 dens 1 1
Particle insertion: 444 every 84653 steps, 1000 by step 169307

#dump		1 all custom ${dumpfreq} ${name}_pour.dump #		id type mass diameter x y z

#dump		2 all image 4000 image.*.jpg type type #		axes yes 0.8 0.02 view 60 -30 zoom 1.5 #                box no 0.0 axes no 0.0 0.0
#dump_modify	2 pad 6

thermo_style	custom step cpu atoms ke v_theta
WARNING: New thermo_style command, previous thermo_modify settings will be lost (src/output.cpp:708)
thermo_modify	flush yes lost warn

run		200000
Per MPI rank memory allocation (min/avg/max) = 5.807 | 5.807 | 5.807 Mbytes
Step CPU Atoms KinEng v_theta 
       0            0        0           -0            0 
    1000  0.081347993      444           -0  0.015707963 
    2000   0.15555148      444           -0  0.031415927 
    3000   0.23141911      444           -0   0.04712389 
    4000   0.30595842      444           -0  0.062831853 
    5000   0.38093327      444           -0  0.078539816 
    6000   0.45507662      444           -0   0.09424778 
    7000   0.52766705      444           -0   0.10995574 
    8000    0.5987307      444           -0   0.12566371 
    9000   0.66785981      444           -0   0.14137167 
   10000   0.73624252      444           -0   0.15707963 
   11000   0.78706051      444           -0    0.1727876 
   12000   0.83926629      444           -0   0.18849556 
   13000   0.89129956      444           -0   0.20420352 
   14000   0.94413937      444           -0   0.21991149 
   15000   0.99809993      444           -0   0.23561945 
   16000    1.0529425      444           -0   0.25132741 
   17000    1.1101537      444           -0   0.26703538 
   18000    1.1688109      444           -0   0.28274334 
   19000    1.2281907      444           -0    0.2984513 
   20000    1.2875982      444           -0   0.31415927 
   21000    1.3397478      444           -0   0.32986723 
   22000    1.3933085      444           -0   0.34557519 
   23000    1.4477433      444           -0   0.36128316 
   24000    1.5024104      444           -0   0.37699112 
   25000    1.5579975      444           -0   0.39269908 
   26000    1.6144683      444           -0   0.40840704 
   27000     1.671953      444           -0   0.42411501 
   28000    1.7297037      444           -0   0.43982297 
   29000    1.7879692      444           -0   0.45553093 
   30000    1.8482015      444           -0    0.4712389 
   31000    1.8996152      444           -0   0.48694686 
   32000    1.9514617      444           -0   0.50265482 
   33000    2.0038306      444           -0   0.51836279 
   34000    2.0571227      444           -0   0.53407075 
   35000    2.1105965      444           -0   0.54977871 
   36000    2.1646483      444           -0   0.56548668 
   37000    2.2196984      444           -0   0.58119464 
   38000    2.2762142      444           -0    0.5969026 
   39000    2.3333932      444           -0   0.61261057 
   40000    2.3910289      444           -0   0.62831853 
   41000     2.444819      444           -0   0.64402649 
   42000    2.4990332      444           -0   0.65973446 
   43000    2.5545841      444           -0   0.67544242 
   44000     2.610636      444           -0   0.69115038 
   45000    2.6684153      444           -0   0.70685835 
   46000    2.7260678      444           -0   0.72256631 
   47000     2.783596      444           -0   0.73827427 
   48000    2.8430204      444           -0   0.75398224 
   49000    2.9031959      444           -0    0.7696902 
   50000    2.9636131      444           -0   0.78539816 
   51000    3.0159162      444           -0   0.80110613 
   52000     3.068779      444           -0   0.81681409 
   53000    3.1214191      444           -0   0.83252205 
   54000    3.1755752      444           -0   0.84823002 
   55000    3.2310378      444           -0   0.86393798 
   56000    3.2885751      444           -0   0.87964594 
   57000    3.3459091      444           -0   0.89535391 
   58000     3.404034      444           -0   0.91106187 
   59000    3.4637654      444           -0   0.92676983 
   60000    3.5242055      444           -0    0.9424778 
   61000    3.5809327      444           -0   0.95818576 
   62000    3.6380683      444           -0   0.97389372 
   63000    3.6961792      444           -0   0.98960169 
   64000    3.7554056      444           -0    1.0053096 
   65000    3.8173248      444           -0    1.0210176 
   66000    3.8797904      444           -0    1.0367256 
   67000    3.9425061      444           -0    1.0524335 
   68000    4.0066976      444           -0    1.0681415 
   69000    4.0715131      444           -0    1.0838495 
   70000    4.1365774      444           -0    1.0995574 
   71000    4.1935377      444           -0    1.1152654 
   72000    4.2539864      444           -0    1.1309734 
   73000    4.3157354      444           -0    1.1466813 
   74000    4.3781206      444           -0    1.1623893 
   75000    4.4406186      444           -0    1.1780972 
   76000    4.5033573      444           -0    1.1938052 
   77000    4.5670489      444           -0    1.2095132 
   78000     4.630535      444           -0    1.2252211 
   79000    4.6945425      444           -0    1.2409291 
   80000    4.7585991      444           -0    1.2566371 
   81000    4.8175936      444           -0     1.272345 
   82000    4.8770027      444           -0     1.288053 
   83000    4.9365389      444           -0     1.303761 
   84000    4.9971493      444           -0    1.3194689 
   85000    5.0860983      888           -0    1.3351769 
   86000    5.1995576      888           -0    1.3508848 
   87000    5.3128248      888           -0    1.3665928 
   88000    5.4236308      888           -0    1.3823008 
   89000    5.5354711      888           -0    1.3980087 
   90000    5.6458114      888           -0    1.4137167 
   91000    5.7324671      888           -0    1.4294247 
   92000    5.8193446      888           -0    1.4451326 
   93000    5.9092359      888           -0    1.4608406 
   94000    5.9994664      888           -0    1.4765485 
   95000      6.09199      888           -0    1.4922565 
   96000    6.1845911      888           -0    1.5079645 
   97000      6.27814      888           -0    1.5236724 
   98000    6.3712702      888           -0    1.5393804 
   99000    6.4628157      888           -0    1.5550884 
  100000    6.5551524      888           -0    1.5707963 
  101000    6.6429521      888           -0    1.5865043 
  102000    6.7310429      888           -0    1.6022123 
  103000    6.8188506      888           -0    1.6179202 
  104000    6.9081433      888           -0    1.6336282 
  105000    6.9987637      888           -0    1.6493361 
  106000    7.0900723      888           -0    1.6650441 
  107000    7.1809508      888           -0    1.6807521 
  108000     7.272082      888           -0      1.69646 
  109000    7.3695568      888           -0     1.712168 
  110000       7.4698      888           -0     1.727876 
  111000    7.5701753      888           -0    1.7435839 
  112000    7.6695883      888           -0    1.7592919 
  113000    7.7694468      888           -0    1.7749998 
  114000    7.8696561      888           -0    1.7907078 
  115000     7.970052      888           -0    1.8064158 
  116000    8.0710576      888           -0    1.8221237 
  117000    8.1727045      888           -0    1.8378317 
  118000    8.2747271      888           -0    1.8535397 
  119000    8.3769287      888           -0    1.8692476 
  120000    8.4790752      888           -0    1.8849556 
  121000    8.5713049      888           -0    1.9006636 
  122000    8.6632009      888           -0    1.9163715 
  123000    8.7567269      888           -0    1.9320795 
  124000    8.8512863      888           -0    1.9477874 
  125000    8.9471336      888           -0    1.9634954 
  126000     9.042481      888           -0    1.9792034 
  127000    9.1378369      888           -0    1.9949113 
  128000    9.2363873      888           -0    2.0106193 
  129000    9.3354642      888           -0    2.0263273 
  130000    9.4356132      888           -0    2.0420352 
  131000    9.5297694      888           -0    2.0577432 
  132000    9.6240642      888           -0    2.0734512 
  133000    9.7200076      888           -0    2.0891591 
  134000    9.8214776      888           -0    2.1048671 
  135000    9.9227528      888           -0     2.120575 
  136000     10.02543      888           -0     2.136283 
  137000    10.127296      888           -0     2.151991 
  138000    10.231669      888           -0    2.1676989 
  139000    10.336523      888           -0    2.1834069 
  140000    10.444045      888           -0    2.1991149 
  141000    10.549353      888           -0    2.2148228 
  142000    10.654904      888           -0    2.2305308 
  143000    10.760855      888           -0    2.2462387 
  144000    10.868411      888           -0    2.2619467 
  145000    10.979464      888           -0    2.2776547 
  146000    11.091952      888           -0    2.2933626 
  147000    11.210994      888           -0    2.3090706 
  148000    11.324917      888           -0    2.3247786 
  149000    11.441685      888           -0    2.3404865 
  150000    11.559373      888           -0    2.3561945 
  151000    11.676417      888           -0    2.3719025 
  152000    11.795208      888           -0    2.3876104 
  153000    11.914064      888           -0    2.4033184 
  154000    12.033608      888           -0    2.4190263 
  155000    12.157921      888           -0    2.4347343 
  156000     12.28216      888           -0    2.4504423 
  157000     12.40925      888           -0    2.4661502 
  158000    12.538258      888           -0    2.4818582 
  159000    12.665879      888           -0    2.4975662 
  160000    12.793728      888           -0    2.5132741 
  161000    12.920257      888           -0    2.5289821 
  162000    13.045154      888           -0      2.54469 
  163000    13.167561      888           -0     2.560398 
  164000    13.289617      888           -0     2.576106 
  165000    13.413097      888           -0    2.5918139 
  166000    13.537788      888           -0    2.6075219 
  167000    13.664319      888           -0    2.6232299 
  168000    13.795283      888           -0    2.6389378 
  169000    13.928544      888           -0    2.6546458 
  170000     14.06282     1000           -0    2.6703538 
  171000    14.199933     1000           -0    2.6860617 
  172000    14.339837     1000           -0    2.7017697 
  173000    14.481564     1000           -0    2.7174776 
  174000    14.623468     1000           -0    2.7331856 
  175000    14.764182     1000           -0    2.7488936 
  176000     14.90475     1000           -0    2.7646015 
  177000    15.046939     1000           -0    2.7803095 
  178000     15.18852     1000           -0    2.7960175 
  179000    15.331642     1000           -0    2.8117254 
  180000    15.476622     1000           -0    2.8274334 
  181000    15.620946     1000           -0    2.8431414 
  182000    15.765698     1000           -0    2.8588493 
  183000    15.907944     1000           -0    2.8745573 
  184000    16.048694     1000           -0    2.8902652 
  185000    16.189733     1000           -0    2.9059732 
  186000    16.332944     1000           -0    2.9216812 
  187000    16.477063     1000           -0    2.9373891 
  188000    16.627954     1000           -0    2.9530971 
  189000    16.775977     1000           -0    2.9688051 
  190000    16.923436     1000           -0     2.984513 
  191000    17.064125     1000           -0     3.000221 
  192000    17.204155     1000           -0    3.0159289 
  193000    17.339813     1000           -0    3.0316369 
  194000    17.475038     1000           -0    3.0473449 
  195000    17.612094     1000           -0    3.0630528 
  196000    17.750641     1000           -0    3.0787608 
  197000    17.888818     1000           -0    3.0944688 
  198000    18.026732     1000           -0    3.1101767 
  199000    18.165204     1000           -0    3.1258847 
  200000     18.30227     1000           -0    3.1415927 
Loop time of 18.3023 on 8 procs for 200000 steps with 1000 atoms

Performance: 44612.208 tau/day, 10927.584 timesteps/s
83.2% CPU use with 8 MPI tasks x no OpenMP threads

MPI task timing breakdown:
Section |  min time  |  avg time  |  max time  |%varavg| %total
---------------------------------------------------------------
Pair    | 0.19351    | 0.48766    | 0.84725    |  38.7 |  2.66
Neigh   | 0.0046528  | 0.0072676  | 0.010414   |   2.6 |  0.04
Comm    | 4.9459     | 5.4819     | 6.2047     |  16.8 | 29.95
Output  | 0.0047881  | 0.0081239  | 0.012953   |   3.0 |  0.04
Modify  | 5.1617     | 7.6539     | 10.602     |  82.1 | 41.82
Other   |            | 4.663      |            |       | 25.48

Nlocal:    125 ave 134 max 119 min
Histogram: 3 1 0 0 0 1 1 0 1 1
Nghost:    194.375 ave 237 max 135 min
Histogram: 1 0 1 0 2 0 1 1 0 2
Neighs:    468.75 ave 750 max 220 min
Histogram: 3 1 0 0 0 0 0 1 1 2

Total # of neighbors = 3750
Ave neighs/atom = 3.75
Neighbor list builds = 210
Dangerous builds = 0
unfix 		ins
run		200000
Per MPI rank memory allocation (min/avg/max) = 11.84 | 11.84 | 11.85 Mbytes
Step CPU Atoms KinEng v_theta 
  200000            0     1000    0.9948763    3.1415927 
  201000    0.1306713     1000   0.99912074    3.1573006 
  202000   0.26164581     1000   0.99996631    3.1730086 
  203000   0.39120539     1000    1.0045649    3.1887165 
  204000   0.52039263     1000   0.99829276    3.2044245 
  205000   0.64990885     1000   0.99940889    3.2201325 
  206000   0.77840219     1000   0.98453049    3.2358404 
  207000   0.90771885     1000   0.96435827    3.2515484 
  208000    1.0357383     1000   0.95203926    3.2672564 
  209000     1.168521     1000   0.94079758    3.2829643 
  210000    1.3024755     1000   0.93067613    3.2986723 
  211000    1.4336966     1000   0.92892198    3.3143802 
  212000    1.5686794     1000   0.92811746    3.3300882 
  213000    1.7026267     1000   0.92182058    3.3457962 
  214000    1.8352095     1000    0.9194415    3.3615041 
  215000    1.9675237     1000   0.92129677    3.3772121 
  216000    2.1008291     1000    0.9250894    3.3929201 
  217000    2.2359113     1000   0.91762048     3.408628 
  218000     2.374589     1000   0.91616865     3.424336 
  219000    2.5099893     1000   0.90829199     3.440044 
  220000     2.648098     1000   0.89753147    3.4557519 
  221000    2.7866387     1000   0.89421795    3.4714599 
  222000    2.9260424     1000   0.90349579    3.4871678 
  223000    3.0643363     1000   0.93056779    3.5028758 
  224000    3.2044164     1000   0.93739693    3.5185838 
  225000    3.3424416     1000   0.94917886    3.5342917 
  226000    3.4792779     1000   0.95927204    3.5499997 
  227000    3.6176009     1000   0.96931126    3.5657077 
  228000    3.7573009     1000   0.96212392    3.5814156 
  229000    3.8978262     1000    0.9508947    3.5971236 
  230000    4.0391591     1000   0.93937853    3.6128316 
  231000    4.1800661     1000   0.92414313    3.6285395 
  232000    4.3203055     1000   0.90629827    3.6442475 
  233000     4.461292     1000   0.89213704    3.6599554 
  234000     4.605181     1000   0.88407015    3.6756634 
  235000    4.7500657     1000   0.88008665    3.6913714 
  236000    4.8933333     1000   0.88381837    3.7070793 
  237000    5.0342059     1000   0.88436072    3.7227873 
  238000    5.1762756     1000   0.88577919    3.7384953 
  239000    5.3157869     1000   0.86519664    3.7542032 
  240000    5.4558027     1000   0.86835098    3.7699112 
  241000    5.5938929     1000   0.86253474    3.7856191 
  242000    5.7355609     1000   0.85490804    3.8013271 
  243000    5.8782286     1000   0.85816124    3.8170351 
  244000    6.0214104     1000   0.84508137     3.832743 
  245000    6.1634226     1000   0.83835523     3.848451 
  246000    6.3050991     1000   0.82578466     3.864159 
  247000     6.446789     1000   0.82285889    3.8798669 
  248000    6.5901393     1000   0.82177526    3.8955749 
  249000    6.7338864     1000   0.82168199    3.9112829 
  250000    6.8775403     1000   0.81087776    3.9269908 
  251000    7.0220998     1000   0.79773155    3.9426988 
  252000    7.1662908     1000   0.80163253    3.9584067 
  253000    7.3123416     1000   0.79509277    3.9741147 
  254000    7.4575035     1000   0.79387507    3.9898227 
  255000    7.6061625     1000    0.7859923    4.0055306 
  256000    7.7552308     1000   0.77671042    4.0212386 
  257000    7.9044813     1000   0.77021298    4.0369466 
  258000    8.0557027     1000   0.77740661    4.0526545 
  259000    8.2054679     1000    0.7807146    4.0683625 
  260000    8.3531723     1000   0.78918349    4.0840704 
  261000    8.4977328     1000   0.79220075    4.0997784 
  262000    8.6426161     1000   0.77602121    4.1154864 
  263000    8.7887054     1000    0.7705531    4.1311943 
  264000    8.9368431     1000   0.76382631    4.1469023 
  265000    9.0854798     1000   0.75614049    4.1626103 
  266000    9.2341473     1000   0.73791231    4.1783182 
  267000    9.3837357     1000   0.72983389    4.1940262 
  268000     9.536259     1000   0.71407049    4.2097342 
  269000    9.6881988     1000   0.70945522    4.2254421 
  270000    9.8414416     1000   0.71549921    4.2411501 
  271000    9.9928144     1000   0.71787836     4.256858 
  272000    10.144682     1000   0.72420802     4.272566 
  273000    10.297774     1000   0.72655613     4.288274 
  274000    10.450487     1000   0.71305762    4.3039819 
  275000    10.601609     1000   0.69966241    4.3196899 
  276000    10.753953     1000   0.70169747    4.3353979 
  277000    10.902661     1000   0.69811126    4.3511058 
  278000    11.050032     1000   0.69352764    4.3668138 
  279000    11.197041     1000   0.70028944    4.3825218 
  280000    11.344083     1000    0.7009598    4.3982297 
  281000    11.489385     1000   0.69818328    4.4139377 
  282000    11.635043     1000   0.68850368    4.4296456 
  283000     11.78145     1000     0.691424    4.4453536 
  284000    11.930674     1000   0.69020716    4.4610616 
  285000    12.078275     1000   0.68452878    4.4767695 
  286000    12.225173     1000   0.67929122    4.4924775 
  287000    12.374635     1000   0.67224279    4.5081855 
  288000    12.524462     1000   0.67805355    4.5238934 
  289000    12.672069     1000   0.68464246    4.5396014 
  290000    12.821007     1000   0.68163211    4.5553093 
  291000    12.964029     1000   0.68259945    4.5710173 
  292000     13.10806     1000   0.67779399    4.5867253 
  293000    13.245615     1000   0.66805198    4.6024332 
  294000     13.38481     1000   0.65716167    4.6181412 
  295000    13.522158     1000   0.64760015    4.6338492 
  296000    13.660178     1000   0.63037186    4.6495571 
  297000    13.800256     1000   0.62396141    4.6652651 
  298000    13.941253     1000   0.62227289    4.6809731 
  299000     14.08266     1000   0.62211068     4.696681 
  300000    14.224992     1000   0.61882303     4.712389 
  301000    14.363471     1000    0.6105406    4.7280969 
  302000    14.501715     1000   0.60819319    4.7438049 
  303000    14.641151     1000   0.60894053    4.7595129 
  304000    14.779311     1000   0.60757323    4.7752208 
  305000    14.918769     1000   0.60912081    4.7909288 
  306000    15.060195     1000   0.61223375    4.8066368 
  307000     15.20232     1000   0.61119522    4.8223447 
  308000    15.344148     1000   0.61943132    4.8380527 
  309000    15.490002     1000   0.65191195    4.8537606 
  310000    15.634809     1000   0.66828179    4.8694686 
  311000    15.779097     1000   0.66988583    4.8851766 
  312000    15.922183     1000   0.66529209    4.9008845 
  313000    16.063433     1000   0.68040926    4.9165925 
  314000    16.205326     1000   0.69939125    4.9323005 
  315000    16.348991     1000   0.71639939    4.9480084 
  316000    16.493892     1000   0.72086329    4.9637164 
  317000    16.637818     1000   0.70966848    4.9794244 
  318000    16.779825     1000   0.70806854    4.9951323 
  319000    16.921177     1000     0.710315    5.0108403 
  320000    17.063973     1000   0.71480156    5.0265482 
  321000    17.205721     1000   0.71444446    5.0422562 
  322000    17.344428     1000   0.70736055    5.0579642 
  323000     17.48106     1000   0.69034034    5.0736721 
  324000    17.617928     1000   0.67815126    5.0893801 
  325000     17.75692     1000   0.67256614    5.1050881 
  326000    17.895926     1000   0.67238623     5.120796 
  327000    18.036349     1000   0.67142519     5.136504 
  328000    18.176498     1000   0.67422703     5.152212 
  329000    18.318097     1000   0.68437499    5.1679199 
  330000     18.46085     1000   0.69077556    5.1836279 
  331000    18.602042     1000   0.68971992    5.1993358 
  332000    18.745722     1000   0.68529242    5.2150438 
  333000    18.889208     1000   0.68332765    5.2307518 
  334000    19.033682     1000   0.68193398    5.2464597 
  335000    19.179368     1000   0.67591869    5.2621677 
  336000    19.323918     1000   0.66925774    5.2778757 
  337000    19.469246     1000   0.65675258    5.2935836 
  338000    19.616447     1000   0.65190551    5.3092916 
  339000    19.762317     1000   0.64070657    5.3249995 
  340000    19.907711     1000   0.63662232    5.3407075 
  341000    20.056373     1000    0.6306552    5.3564155 
  342000    20.203601     1000   0.62071772    5.3721234 
  343000    20.349218     1000   0.61600119    5.3878314 
  344000    20.495538     1000   0.61385567    5.4035394 
  345000    20.641831     1000   0.60937098    5.4192473 
  346000    20.792299     1000   0.61095676    5.4349553 
  347000    20.946669     1000   0.62000667    5.4506633 
  348000    21.101119     1000   0.63012572    5.4663712 
  349000    21.252704     1000   0.63175992    5.4820792 
  350000    21.405866     1000   0.63087877    5.4977871 
  351000    21.554925     1000   0.64078338    5.5134951 
  352000    21.707866     1000   0.64796612    5.5292031 
  353000    21.861113     1000   0.66524033     5.544911 
  354000    22.012548     1000    0.6747691     5.560619 
  355000    22.164232     1000   0.67807561     5.576327 
  356000    22.315064     1000   0.68719118    5.5920349 
  357000    22.467692     1000   0.68576918    5.6077429 
  358000    22.620031     1000   0.67455869    5.6234508 
  359000    22.772133     1000   0.67301382    5.6391588 
  360000    22.920765     1000   0.68400288    5.6548668 
  361000    23.068761     1000   0.69569529    5.6705747 
  362000    23.215948     1000   0.70636222    5.6862827 
  363000    23.360808     1000   0.70757354    5.7019907 
  364000    23.505849     1000   0.70506737    5.7176986 
  365000    23.651893     1000   0.70535286    5.7334066 
  366000    23.797299     1000    0.7030422    5.7491146 
  367000     23.94226     1000   0.69242948    5.7648225 
  368000    24.086441     1000   0.67906838    5.7805305 
  369000    24.230753     1000   0.67781593    5.7962384 
  370000    24.375473     1000    0.6682085    5.8119464 
  371000    24.519685     1000    0.6645696    5.8276544 
  372000    24.664853     1000   0.66002661    5.8433623 
  373000    24.809662     1000   0.65100443    5.8590703 
  374000    24.956054     1000   0.64429024    5.8747783 
  375000    25.100094     1000   0.63966018    5.8904862 
  376000    25.242911     1000   0.63590257    5.9061942 
  377000    25.385827     1000   0.63984721    5.9219022 
  378000    25.530696     1000   0.64345922    5.9376101 
  379000     25.67685     1000   0.64747182    5.9533181 
  380000    25.821381     1000   0.65327809     5.969026 
  381000     25.96483     1000   0.65813158     5.984734 
  382000    26.109319     1000   0.64511255     6.000442 
  383000    26.255111     1000   0.64192469    6.0161499 
  384000    26.399265     1000    0.6339782    6.0318579 
  385000    26.543453     1000   0.63252545    6.0475659 
  386000    26.688459     1000   0.63438333    6.0632738 
  387000    26.834544     1000   0.63475465    6.0789818 
  388000    26.980817     1000    0.6233621    6.0946897 
  389000    27.125729     1000   0.63255014    6.1103977 
  390000    27.272514     1000   0.63561817    6.1261057 
  391000    27.416999     1000   0.64103109    6.1418136 
  392000    27.563265     1000   0.64196384    6.1575216 
  393000    27.704552     1000   0.63347174    6.1732296 
  394000    27.846837     1000   0.63111946    6.1889375 
  395000    27.987413     1000   0.63794119    6.2046455 
  396000    28.126932     1000    0.6396527    6.2203535 
  397000    28.265165     1000   0.64630925    6.2360614 
  398000    28.400683     1000   0.65033039    6.2517694 
  399000    28.535735     1000   0.65109342    6.2674773 
  400000    28.669704     1000   0.65172111    6.2831853 
Loop time of 28.6697 on 8 procs for 200000 steps with 1000 atoms

Performance: 28479.734 tau/day, 6975.998 timesteps/s
81.9% CPU use with 8 MPI tasks x no OpenMP threads

MPI task timing breakdown:
Section |  min time  |  avg time  |  max time  |%varavg| %total
---------------------------------------------------------------
Pair    | 0.60273    | 1.4204     | 2.3842     |  63.7 |  4.95
Neigh   | 0.0067254  | 0.010461   | 0.014341   |   3.0 |  0.04
Comm    | 9.0915     | 10.291     | 11.384     |  27.2 | 35.90
Output  | 0.0049233  | 0.009309   | 0.015608   |   4.1 |  0.03
Modify  | 7.494      | 11.43      | 15.656     | 103.5 | 39.87
Other   |            | 5.508      |            |       | 19.21

Nlocal:    125 ave 130 max 118 min
Histogram: 2 1 0 0 0 0 0 1 2 2
Nghost:    247.375 ave 307 max 198 min
Histogram: 3 1 0 0 0 0 0 1 2 1
Neighs:    644.75 ave 792 max 486 min
Histogram: 1 2 1 0 0 0 0 1 0 3

Total # of neighbors = 5158
Ave neighs/atom = 5.158
Neighbor list builds = 159
Dangerous builds = 0
Total wall time: 0:00:46
