LAMMPS (2 Aug 2023 - Development - bc02a7cc6)
variable	name string mixer

thermo_modify	flush yes
variable	seed equal 14314

###############################################
# Particle parameters
################################################

variable	rlo equal 0.3
variable	rhi equal 0.6
variable	dlo equal 2.0*${rlo}
variable	dlo equal 2.0*0.3
variable	dhi equal 2.0*${rhi}
variable	dhi equal 2.0*0.6
variable 	skin equal ${rhi}
variable 	skin equal 0.6

variable	coeffRes equal 0.1
variable	coeffFric equal 0.5

variable	kn equal 10^5
variable	kt equal 0.2*${kn}
variable	kt equal 0.2*100000

variable	gravity equal 1.0
variable	density equal 1.0

variable	min_mass equal ${density}*4.0/3.0*PI*${rlo}*${rlo}*${rlo}
variable	min_mass equal 1*4.0/3.0*PI*${rlo}*${rlo}*${rlo}
variable	min_mass equal 1*4.0/3.0*PI*0.3*${rlo}*${rlo}
variable	min_mass equal 1*4.0/3.0*PI*0.3*0.3*${rlo}
variable	min_mass equal 1*4.0/3.0*PI*0.3*0.3*0.3
variable	a equal (-2.0*log(${coeffRes})/PI)^2
variable	a equal (-2.0*log(0.1)/PI)^2
variable        gamma_n equal sqrt($a*2*${kn}/${min_mass}/(1+0.25*$a))
variable        gamma_n equal sqrt(0.405284734569351*2*${kn}/${min_mass}/(1+0.25*$a))
variable        gamma_n equal sqrt(0.405284734569351*2*100000/${min_mass}/(1+0.25*$a))
variable        gamma_n equal sqrt(0.405284734569351*2*100000/0.113097335529233/(1+0.25*$a))
variable        gamma_n equal sqrt(0.405284734569351*2*100000/0.113097335529233/(1+0.25*0.405284734569351))
variable        gamma_t equal ${gamma_n}*0.5
variable        gamma_t equal 806.699778405191*0.5

variable	tcol equal PI/sqrt(2*${kn}/${min_mass}-${gamma_n}/4.0)
variable	tcol equal PI/sqrt(2*100000/${min_mass}-${gamma_n}/4.0)
variable	tcol equal PI/sqrt(2*100000/0.113097335529233-${gamma_n}/4.0)
variable	tcol equal PI/sqrt(2*100000/0.113097335529233-806.699778405191/4.0)

variable	dt equal ${tcol}*0.02
variable	dt equal 0.00236257621510454*0.02
timestep	${dt}
timestep	4.72515243020908e-05

###############################################

variable	dumpfreq equal 1000
variable	logfreq equal 1000

newton 		on
atom_style	sphere

boundary	p p f

region		boxreg block 0 20 0 20 0 20
create_box	1 boxreg
Created orthogonal box = (0 0 0) to (20 20 20)
  2 by 2 by 2 MPI processor grid

pair_style	gran/hertz/history 		${kn} ${kt} ${gamma_n} ${gamma_t} ${coeffFric} 1
pair_style	gran/hertz/history 		100000 ${kt} ${gamma_n} ${gamma_t} ${coeffFric} 1
pair_style	gran/hertz/history 		100000 20000 ${gamma_n} ${gamma_t} ${coeffFric} 1
pair_style	gran/hertz/history 		100000 20000 806.699778405191 ${gamma_t} ${coeffFric} 1
pair_style	gran/hertz/history 		100000 20000 806.699778405191 403.349889202595 ${coeffFric} 1
pair_style	gran/hertz/history 		100000 20000 806.699778405191 403.349889202595 0.5 1
pair_coeff	* *

neighbor        ${skin} multi
neighbor        0.6 multi
thermo 		${logfreq}
thermo 		1000

comm_style	brick
comm_modify 	mode multi group all vel yes
balance		1.1 shift xyz 20 1.1
Balancing ...
Generated 0 of 0 mixed pair_coeff terms from geometric mixing rule
Neighbor list info ...
  update: every = 1 steps, delay = 0 steps, check = yes
  max neighbors/atom: 2000, page size: 100000
  master list distance cutoff = 0
  ghost atom cutoff = 0
  binsize = 20, bins = 1 1 1
  1 neighbor lists, perpetual/occasional/extra = 1 0 0
  (1) pair gran/hertz/history, perpetual
      attributes: half, newton on, size, history
      pair build: half/size/multi/newton
      stencil: half/multi/3d
      bin: multi
WARNING: Communication cutoff is 0.0. No ghost atoms will be generated. Atoms may get lost. (src/comm_brick.cpp:210)
fix		bal all balance 10000 1.1 shift xyz 20 1.01

####################### Options specific to pouring #########################

region	     	insreg cylinder z 10 10 8 10 18 side in units box
region	    	cylreg cylinder z 10 10 10 0 20 side in units box

variable	theta equal (step/400000)*2*PI

region          b1 block 2 18 9 11 0 4 side out                 rotate v_theta 10 10 0 0 0 1 units box
region          b2 block 9 11 2 18 0 3.99999 side out                 rotate v_theta 10 10 0 0 0 1 units box

region		mixer intersect 3 cylreg b1 b2 side in

fix		grav all gravity ${gravity} vector 0 0 -1
fix		grav all gravity 1 vector 0 0 -1
fix		1 all nve/sphere

fix		mixwall all wall/gran/region hertz/history                 ${kn} ${kt} ${gamma_n} ${gamma_t} ${coeffFric} 1 region mixer
fix		mixwall all wall/gran/region hertz/history                 100000 ${kt} ${gamma_n} ${gamma_t} ${coeffFric} 1 region mixer
fix		mixwall all wall/gran/region hertz/history                 100000 20000 ${gamma_n} ${gamma_t} ${coeffFric} 1 region mixer
fix		mixwall all wall/gran/region hertz/history                 100000 20000 806.699778405191 ${gamma_t} ${coeffFric} 1 region mixer
fix		mixwall all wall/gran/region hertz/history                 100000 20000 806.699778405191 403.349889202595 ${coeffFric} 1 region mixer
fix		mixwall all wall/gran/region hertz/history                 100000 20000 806.699778405191 403.349889202595 0.5 1 region mixer

fix		ins all pour 1000 1 42424 region insreg 		diam range ${dlo} ${dhi} dens ${density} ${density}
fix		ins all pour 1000 1 42424 region insreg 		diam range 0.6 ${dhi} dens ${density} ${density}
fix		ins all pour 1000 1 42424 region insreg 		diam range 0.6 1.2 dens ${density} ${density}
fix		ins all pour 1000 1 42424 region insreg 		diam range 0.6 1.2 dens 1 ${density}
fix		ins all pour 1000 1 42424 region insreg 		diam range 0.6 1.2 dens 1 1
Particle insertion: 444 every 84653 steps, 1000 by step 169307

#dump		1 all custom ${dumpfreq} ${name}_pour.dump #		id type mass diameter x y z

#dump		2 all image 4000 image.*.jpg type type #		axes yes 0.8 0.02 view 60 -30 zoom 1.5 #                box no 0.0 axes no 0.0 0.0
#dump_modify	2 pad 6

thermo_style	custom step cpu atoms ke v_theta
WARNING: New thermo_style command, previous thermo_modify settings will be lost (src/output.cpp:903)
thermo_modify	flush yes lost warn

run		200000

CITE-CITE-CITE-CITE-CITE-CITE-CITE-CITE-CITE-CITE-CITE-CITE-CITE

Your simulation uses code contributions which should be cited:

- neighbor multi command: doi:10.1016/j.cpc.2008.03.005, doi:10.1007/s40571-020-00361-2

@Article{Intveld08,
 author =  {in 't Veld, P. J. and S. J.~Plimpton and G. S. Grest},
 title =   {Accurate and Efficient Methods for Modeling Colloidal
            Mixtures in an Explicit Solvent using Molecular Dynamics},
 journal = {Comput.\ Phys.\ Commut.},
 year =    2008,
 volume =  179,
 pages =   {320--329}
}

@article{Shire2020,
 author = {Shire, Tom and Hanley, Kevin J. and Stratford, Kevin},
 title = {{DEM} Simulations of Polydisperse Media: Efficient Contact
          Detection Applied to Investigate the Quasi-Static Limit},
 journal = {Computational Particle Mechanics},
 year = {2020}
@article{Monti2022,
 author = {Monti, Joseph M. and Clemmer, Joel T. and Srivastava, 
           Ishan and Silbert, Leonardo E. and Grest, Gary S. 
           and Lechman, Jeremy B.},
 title = {Large-scale frictionless jamming with power-law particle 
          size distributions},
 journal = {Phys. Rev. E},
 volume = {106}
 issue = {3}
 year = {2022}
}

CITE-CITE-CITE-CITE-CITE-CITE-CITE-CITE-CITE-CITE-CITE-CITE-CITE

Generated 0 of 0 mixed pair_coeff terms from geometric mixing rule
Per MPI rank memory allocation (min/avg/max) = 5.804 | 5.804 | 5.804 Mbytes
   Step          CPU          Atoms        KinEng        v_theta    
         0   0                      0  -0              0            
      1000   0.17381949           444  -0              0.015707963  
      2000   0.29427863           444  -0              0.031415927  
      3000   0.42191405           444  -0              0.04712389   
      4000   0.5411768            444  -0              0.062831853  
      5000   0.6571785            444  -0              0.078539816  
      6000   0.78110807           444  -0              0.09424778   
      7000   0.90942167           444  -0              0.10995574   
      8000   1.0294002            444  -0              0.12566371   
      9000   1.150719             444  -0              0.14137167   
     10000   1.2727361            444  -0              0.15707963   
     11000   1.3588201            444  -0              0.1727876    
     12000   1.4478522            444  -0              0.18849556   
     13000   1.5418046            444  -0              0.20420352   
     14000   1.6327487            444  -0              0.21991149   
     15000   1.7259693            444  -0              0.23561945   
     16000   1.8199453            444  -0              0.25132741   
     17000   1.9140904            444  -0              0.26703538   
     18000   2.0092503            444  -0              0.28274334   
     19000   2.1159595            444  -0              0.2984513    
     20000   2.2155774            444  -0              0.31415927   
     21000   2.3054237            444  -0              0.32986723   
     22000   2.425991             444  -0              0.34557519   
     23000   2.5499457            444  -0              0.36128316   
     24000   2.6715171            444  -0              0.37699112   
     25000   2.7646934            444  -0              0.39269908   
     26000   2.8607499            444  -0              0.40840704   
     27000   3.017199             444  -0              0.42411501   
     28000   3.1824061            444  -0              0.43982297   
     29000   3.3357273            444  -0              0.45553093   
     30000   3.4701407            444  -0              0.4712389    
     31000   3.6113041            444  -0              0.48694686   
     32000   3.7023977            444  -0              0.50265482   
     33000   3.8106402            444  -0              0.51836279   
     34000   3.9589128            444  -0              0.53407075   
     35000   4.0988892            444  -0              0.54977871   
     36000   4.1894808            444  -0              0.56548668   
     37000   4.281138             444  -0              0.58119464   
     38000   4.3754688            444  -0              0.5969026    
     39000   4.4719556            444  -0              0.61261057   
     40000   4.566077             444  -0              0.62831853   
     41000   4.6556269            444  -0              0.64402649   
     42000   4.7456351            444  -0              0.65973446   
     43000   4.8346358            444  -0              0.67544242   
     44000   4.9259503            444  -0              0.69115038   
     45000   5.0583906            444  -0              0.70685835   
     46000   5.148645             444  -0              0.72256631   
     47000   5.2390434            444  -0              0.73827427   
     48000   5.3324578            444  -0              0.75398224   
     49000   5.4267142            444  -0              0.7696902    
     50000   5.5232677            444  -0              0.78539816   
     51000   5.6108673            444  -0              0.80110613   
     52000   5.6991093            444  -0              0.81681409   
     53000   5.7870842            444  -0              0.83252205   
     54000   5.8757791            444  -0              0.84823002   
     55000   5.9650963            444  -0              0.86393798   
     56000   6.0553418            444  -0              0.87964594   
     57000   6.1428229            444  -0              0.89535391   
     58000   6.2300921            444  -0              0.91106187   
     59000   6.3195649            444  -0              0.92676983   
     60000   6.4089247            444  -0              0.9424778    
     61000   6.497387             444  -0              0.95818576   
     62000   6.5847924            444  -0              0.97389372   
     63000   6.6723682            444  -0              0.98960169   
     64000   6.7627278            444  -0              1.0053096    
     65000   6.8546337            444  -0              1.0210176    
     66000   6.9485232            444  -0              1.0367256    
     67000   7.045054             444  -0              1.0524335    
     68000   7.1415963            444  -0              1.0681415    
     69000   7.2367695            444  -0              1.0838495    
     70000   7.3342679            444  -0              1.0995574    
     71000   7.4241249            444  -0              1.1152654    
     72000   7.5216517            444  -0              1.1309734    
     73000   7.6167134            444  -0              1.1466813    
     74000   7.7084626            444  -0              1.1623893    
     75000   7.8002104            444  -0              1.1780972    
     76000   7.8929093            444  -0              1.1938052    
     77000   7.9882368            444  -0              1.2095132    
     78000   8.0824782            444  -0              1.2252211    
     79000   8.1811253            444  -0              1.2409291    
     80000   8.27769              444  -0              1.2566371    
     81000   8.3704972            444  -0              1.272345     
     82000   8.4633309            444  -0              1.288053     
     83000   8.5557774            444  -0              1.303761     
     84000   8.6469815            444  -0              1.3194689    
     85000   8.797982             888  -0              1.3351769    
     86000   8.9954345            888  -0              1.3508848    
     87000   9.1876543            888  -0              1.3665928    
     88000   9.3769599            888  -0              1.3823008    
     89000   9.5656999            888  -0              1.3980087    
     90000   9.7529829            888  -0              1.4137167    
     91000   9.8904923            888  -0              1.4294247    
     92000   10.029168            888  -0              1.4451326    
     93000   10.176111            888  -0              1.4608406    
     94000   10.316577            888  -0              1.4765485    
     95000   10.458269            888  -0              1.4922565    
     96000   10.59628             888  -0              1.5079645    
     97000   10.733447            888  -0              1.5236724    
     98000   10.873528            888  -0              1.5393804    
     99000   11.010088            888  -0              1.5550884    
    100000   11.149513            888  -0              1.5707963    
    101000   11.286346            888  -0              1.5865043    
    102000   11.426739            888  -0              1.6022123    
    103000   11.567992            888  -0              1.6179202    
    104000   11.711406            888  -0              1.6336282    
    105000   11.855842            888  -0              1.6493361    
    106000   11.999911            888  -0              1.6650441    
    107000   12.143817            888  -0              1.6807521    
    108000   12.287961            888  -0              1.69646      
    109000   12.428296            888  -0              1.712168     
    110000   12.566277            888  -0              1.727876     
    111000   12.713418            888  -0              1.7435839    
    112000   12.864549            888  -0              1.7592919    
    113000   13.017462            888  -0              1.7749998    
    114000   13.170317            888  -0              1.7907078    
    115000   13.321752            888  -0              1.8064158    
    116000   13.474065            888  -0              1.8221237    
    117000   13.627415            888  -0              1.8378317    
    118000   13.77944             888  -0              1.8535397    
    119000   13.926277            888  -0              1.8692476    
    120000   14.076484            888  -0              1.8849556    
    121000   14.214714            888  -0              1.9006636    
    122000   14.360639            888  -0              1.9163715    
    123000   14.509076            888  -0              1.9320795    
    124000   14.658502            888  -0              1.9477874    
    125000   14.808517            888  -0              1.9634954    
    126000   14.960176            888  -0              1.9792034    
    127000   15.110338            888  -0              1.9949113    
    128000   15.261038            888  -0              2.0106193    
    129000   15.412105            888  -0              2.0263273    
    130000   15.565658            888  -0              2.0420352    
    131000   15.712136            888  -0              2.0577432    
    132000   15.870681            888  -0              2.0734512    
    133000   16.028328            888  -0              2.0891591    
    134000   16.184813            888  -0              2.1048671    
    135000   16.339755            888  -0              2.120575     
    136000   16.494838            888  -0              2.136283     
    137000   16.651359            888  -0              2.151991     
    138000   16.80805             888  -0              2.1676989    
    139000   16.962391            888  -0              2.1834069    
    140000   17.116211            888  -0              2.1991149    
    141000   17.268909            888  -0              2.2148228    
    142000   17.421228            888  -0              2.2305308    
    143000   17.574945            888  -0              2.2462387    
    144000   17.735935            888  -0              2.2619467    
    145000   17.894579            888  -0              2.2776547    
    146000   18.058897            888  -0              2.2933626    
    147000   18.226604            888  -0              2.3090706    
    148000   18.397398            888  -0              2.3247786    
    149000   18.569646            888  -0              2.3404865    
    150000   18.744178            888  -0              2.3561945    
    151000   18.909883            888  -0              2.3719025    
    152000   19.077436            888  -0              2.3876104    
    153000   19.245845            888  -0              2.4033184    
    154000   19.41627             888  -0              2.4190263    
    155000   19.595055            888  -0              2.4347343    
    156000   19.783758            888  -0              2.4504423    
    157000   19.975673            888  -0              2.4661502    
    158000   20.172625            888  -0              2.4818582    
    159000   20.367088            888  -0              2.4975662    
    160000   20.562357            888  -0              2.5132741    
    161000   20.751546            888  -0              2.5289821    
    162000   20.94435             888  -0              2.54469      
    163000   21.256353            888  -0              2.560398     
    164000   21.457415            888  -0              2.576106     
    165000   21.654366            888  -0              2.5918139    
    166000   21.8466              888  -0              2.6075219    
    167000   22.041419            888  -0              2.6232299    
    168000   22.232424            888  -0              2.6389378    
    169000   22.431618            888  -0              2.6546458    
    170000   22.628127           1000  -0              2.6703538    
    171000   22.951896           1000  -0              2.6860617    
    172000   23.155557           1000  -0              2.7017697    
    173000   23.360647           1000  -0              2.7174776    
    174000   23.564712           1000  -0              2.7331856    
    175000   23.763853           1000  -0              2.7488936    
    176000   23.961993           1000  -0              2.7646015    
    177000   24.165703           1000  -0              2.7803095    
    178000   24.373848           1000  -0              2.7960175    
    179000   24.682414           1000  -0              2.8117254    
    180000   24.879565           1000  -0              2.8274334    
    181000   25.088279           1000  -0              2.8431414    
    182000   25.414098           1000  -0              2.8588493    
    183000   25.635616           1000  -0              2.8745573    
    184000   25.8564             1000  -0              2.8902652    
    185000   26.073454           1000  -0              2.9059732    
    186000   26.284624           1000  -0              2.9216812    
    187000   26.497423           1000  -0              2.9373891    
    188000   26.712873           1000  -0              2.9530971    
    189000   26.924865           1000  -0              2.9688051    
    190000   27.121878           1000  -0              2.984513     
    191000   27.309947           1000  -0              3.000221     
    192000   27.504831           1000  -0              3.0159289    
    193000   27.708398           1000  -0              3.0316369    
    194000   27.914087           1000  -0              3.0473449    
    195000   28.115324           1000  -0              3.0630528    
    196000   28.312298           1000  -0              3.0787608    
    197000   28.509074           1000  -0              3.0944688    
    198000   28.712859           1000  -0              3.1101767    
    199000   28.93302            1000  -0              3.1258847    
    200000   29.152558           1000  -0              3.1415927    
Loop time of 29.1521 on 8 procs for 200000 steps with 1000 atoms

Performance: 28008.491 tau/day, 6860.569 timesteps/s, 6.861 Matom-step/s
98.0% CPU use with 8 MPI tasks x no OpenMP threads

MPI task timing breakdown:
Section |  min time  |  avg time  |  max time  |%varavg| %total
---------------------------------------------------------------
Pair    | 0.45508    | 0.7771     | 1.1569     |  34.7 |  2.67
Neigh   | 0.012172   | 0.015127   | 0.018468   |   2.1 |  0.05
Comm    | 9.3965     | 9.8934     | 10.339     |  12.3 | 33.94
Output  | 0.012168   | 0.018053   | 0.027052   |   2.9 |  0.06
Modify  | 10.326     | 11.862     | 13.633     |  30.4 | 40.69
Other   |            | 6.586      |            |       | 22.59

Nlocal:            125 ave         130 max         117 min
Histogram: 1 0 0 1 1 1 0 1 1 2
Nghost:         185.75 ave         226 max         141 min
Histogram: 1 1 1 1 0 0 1 1 0 2
Neighs:        483.375 ave         722 max         235 min
Histogram: 2 2 0 0 0 0 0 0 1 3

Total # of neighbors = 3867
Ave neighs/atom = 3.867
Neighbor list builds = 200
Dangerous builds = 0
unfix 		ins
run		200000
Generated 0 of 0 mixed pair_coeff terms from geometric mixing rule
Per MPI rank memory allocation (min/avg/max) = 11.83 | 11.84 | 11.84 Mbytes
   Step          CPU          Atoms        KinEng        v_theta    
    200000   0                   1000   1.0420754      3.1415927    
    201000   0.210873            1000   1.0405655      3.1573006    
    202000   0.41330434          1000   1.0423055      3.1730086    
    203000   0.61421084          1000   1.0270702      3.1887165    
    204000   0.79664627          1000   1.0202489      3.2044245    
    205000   0.97476333          1000   1.0003441      3.2201325    
    206000   1.1458242           1000   0.98818297     3.2358404    
    207000   1.3191022           1000   0.97576036     3.2515484    
    208000   1.4836717           1000   0.97455484     3.2672564    
    209000   1.6755193           1000   0.97263034     3.2829643    
    210000   1.8719348           1000   0.96762432     3.2986723    
    211000   2.0710848           1000   0.95162686     3.3143802    
    212000   2.2732319           1000   0.92898297     3.3300882    
    213000   2.4784129           1000   0.91868788     3.3457962    
    214000   2.6783993           1000   0.91681802     3.3615041    
    215000   2.8832283           1000   0.91771037     3.3772121    
    216000   3.0728083           1000   0.92686539     3.3929201    
    217000   3.2630938           1000   0.93113565     3.408628     
    218000   3.4513049           1000   0.92892592     3.424336     
    219000   3.6440497           1000   0.9266419      3.440044     
    220000   3.8518309           1000   0.92169616     3.4557519    
    221000   4.0616068           1000   0.9167698      3.4714599    
    222000   4.2694623           1000   0.91450847     3.4871678    
    223000   4.4767018           1000   0.91604255     3.5028758    
    224000   4.7079854           1000   0.91427516     3.5185838    
    225000   4.8950158           1000   0.91026606     3.5342917    
    226000   5.096934            1000   0.9194222      3.5499997    
    227000   5.3089026           1000   0.91047652     3.5657077    
    228000   5.5252318           1000   0.90585997     3.5814156    
    229000   5.7434949           1000   0.90043299     3.5971236    
    230000   5.9560586           1000   0.89631166     3.6128316    
    231000   6.1466059           1000   0.89052723     3.6285395    
    232000   6.3380211           1000   0.89208226     3.6442475    
    233000   6.5447984           1000   0.89089792     3.6599554    
    234000   6.7579355           1000   0.88737985     3.6756634    
    235000   6.9664803           1000   0.89710027     3.6913714    
    236000   7.113177            1000   0.89450855     3.7070793    
    237000   7.2938941           1000   0.89920549     3.7227873    
    238000   7.4842101           1000   0.89874948     3.7384953    
    239000   7.6898518           1000   0.89540987     3.7542032    
    240000   7.8936913           1000   0.88720157     3.7699112    
    241000   8.1013104           1000   0.8689209      3.7856191    
    242000   8.3124091           1000   0.87435182     3.8013271    
    243000   8.5339235           1000   0.86722338     3.8170351    
    244000   8.7511077           1000   0.87436714     3.832743     
    245000   8.9546615           1000   0.86004419     3.848451     
    246000   9.1517983           1000   0.86029116     3.864159     
    247000   9.3557137           1000   0.84841853     3.8798669    
    248000   9.5744837           1000   0.84692743     3.8955749    
    249000   9.7772432           1000   0.84187975     3.9112829    
    250000   9.9513697           1000   0.83319176     3.9269908    
    251000   10.136898           1000   0.8278557      3.9426988    
    252000   10.317625           1000   0.80933305     3.9584067    
    253000   10.49565            1000   0.81075987     3.9741147    
    254000   10.682488           1000   0.81988409     3.9898227    
    255000   10.875918           1000   0.8162064      4.0055306    
    256000   11.093106           1000   0.81135092     4.0212386    
    257000   11.313681           1000   0.81532269     4.0369466    
    258000   11.548319           1000   0.81689867     4.0526545    
    259000   11.789478           1000   0.8063647      4.0683625    
    260000   12.027963           1000   0.80473665     4.0840704    
    261000   12.252425           1000   0.79777648     4.0997784    
    262000   12.481035           1000   0.78848261     4.1154864    
    263000   12.715568           1000   0.76829824     4.1311943    
    264000   12.962202           1000   0.75947176     4.1469023    
    265000   13.204037           1000   0.77049168     4.1626103    
    266000   13.448398           1000   0.78867596     4.1783182    
    267000   13.687333           1000   0.80551861     4.1940262    
    268000   13.926415           1000   0.83567877     4.2097342    
    269000   14.156973           1000   0.83485465     4.2254421    
    270000   14.396176           1000   0.828937       4.2411501    
    271000   14.623413           1000   0.82453746     4.256858     
    272000   14.843513           1000   0.81166976     4.272566     
    273000   15.067922           1000   0.81079653     4.288274     
    274000   15.28821            1000   0.80561739     4.3039819    
    275000   15.504729           1000   0.80498223     4.3196899    
    276000   15.736013           1000   0.80177502     4.3353979    
    277000   15.968091           1000   0.80089454     4.3511058    
    278000   16.178689           1000   0.79642868     4.3668138    
    279000   16.390132           1000   0.79896784     4.3825218    
    280000   16.603158           1000   0.78399083     4.3982297    
    281000   16.819725           1000   0.77228921     4.4139377    
    282000   17.040094           1000   0.76712373     4.4296456    
    283000   17.263799           1000   0.77283842     4.4453536    
    284000   17.490462           1000   0.7709758      4.4610616    
    285000   17.724675           1000   0.76667328     4.4767695    
    286000   17.951264           1000   0.75892726     4.4924775    
    287000   18.167535           1000   0.74850747     4.5081855    
    288000   18.385259           1000   0.72934795     4.5238934    
    289000   18.604662           1000   0.71744625     4.5396014    
    290000   18.828786           1000   0.71294944     4.5553093    
    291000   19.047321           1000   0.72211086     4.5710173    
    292000   19.278887           1000   0.74088015     4.5867253    
    293000   19.53575            1000   0.74851926     4.6024332    
    294000   19.771232           1000   0.74692822     4.6181412    
    295000   19.996971           1000   0.74254814     4.6338492    
    296000   20.222062           1000   0.74601015     4.6495571    
    297000   20.439525           1000   0.74638744     4.6652651    
    298000   20.662382           1000   0.73701339     4.6809731    
    299000   20.886271           1000   0.73334347     4.696681     
    300000   21.104054           1000   0.73558758     4.712389     
    301000   21.320001           1000   0.73178356     4.7280969    
    302000   21.537747           1000   0.71627076     4.7438049    
    303000   21.763392           1000   0.71059394     4.7595129    
    304000   21.98992            1000   0.703899       4.7752208    
    305000   22.210232           1000   0.70655332     4.7909288    
    306000   22.430885           1000   0.70333612     4.8066368    
    307000   22.658379           1000   0.69086852     4.8223447    
    308000   22.886405           1000   0.68526288     4.8380527    
    309000   23.115639           1000   0.69290457     4.8537606    
    310000   23.347005           1000   0.69337677     4.8694686    
    311000   23.572283           1000   0.69644006     4.8851766    
    312000   23.796235           1000   0.69670505     4.9008845    
    313000   24.017011           1000   0.69382791     4.9165925    
    314000   24.234113           1000   0.6944105      4.9323005    
    315000   24.451077           1000   0.6949222      4.9480084    
    316000   24.669791           1000   0.69421369     4.9637164    
    317000   24.892023           1000   0.6920133      4.9794244    
    318000   25.119616           1000   0.6928577      4.9951323    
    319000   25.3466             1000   0.69209409     5.0108403    
    320000   25.575521           1000   0.69167655     5.0265482    
    321000   25.804203           1000   0.68777866     5.0422562    
    322000   26.032962           1000   0.69496025     5.0579642    
    323000   26.256543           1000   0.69721664     5.0736721    
    324000   26.480543           1000   0.68496656     5.0893801    
    325000   26.700212           1000   0.68111699     5.1050881    
    326000   26.912216           1000   0.67438531     5.120796     
    327000   27.118543           1000   0.66286643     5.136504     
    328000   27.332706           1000   0.65701377     5.152212     
    329000   27.553929           1000   0.65252963     5.1679199    
    330000   27.786687           1000   0.64529277     5.1836279    
    331000   28.017897           1000   0.64811071     5.1993358    
    332000   28.249955           1000   0.64499099     5.2150438    
    333000   28.467527           1000   0.64331251     5.2307518    
    334000   28.681604           1000   0.65636958     5.2464597    
    335000   28.921125           1000   0.67790599     5.2621677    
    336000   29.168374           1000   0.69228304     5.2778757    
    337000   29.413106           1000   0.70901633     5.2935836    
    338000   29.671078           1000   0.71354215     5.3092916    
    339000   29.901797           1000   0.71874286     5.3249995    
    340000   30.131556           1000   0.71772346     5.3407075    
    341000   30.355273           1000   0.71182071     5.3564155    
    342000   30.706179           1000   0.70821774     5.3721234    
    343000   30.931334           1000   0.70472736     5.3878314    
    344000   31.167874           1000   0.69685487     5.4035394    
    345000   31.406098           1000   0.7023063      5.4192473    
    346000   31.643161           1000   0.69498936     5.4349553    
    347000   31.882096           1000   0.68738745     5.4506633    
    348000   32.113991           1000   0.68981366     5.4663712    
    349000   32.347158           1000   0.68553372     5.4820792    
    350000   32.574046           1000   0.68885198     5.4977871    
    351000   32.799835           1000   0.70113977     5.5134951    
    352000   33.034861           1000   0.70710268     5.5292031    
    353000   33.275707           1000   0.71227245     5.544911     
    354000   33.523461           1000   0.71686544     5.560619     
    355000   33.774752           1000   0.72000261     5.576327     
    356000   34.025566           1000   0.72647409     5.5920349    
    357000   34.267039           1000   0.72273204     5.6077429    
    358000   34.504467           1000   0.72610007     5.6234508    
    359000   34.746339           1000   0.72010093     5.6391588    
    360000   34.99404            1000   0.72760588     5.6548668    
    361000   35.246684           1000   0.71947878     5.6705747    
    362000   35.498638           1000   0.71786544     5.6862827    
    363000   35.746003           1000   0.72193732     5.7019907    
    364000   35.992324           1000   0.72662096     5.7176986    
    365000   36.245455           1000   0.72419459     5.7334066    
    366000   36.499626           1000   0.73129832     5.7491146    
    367000   36.753661           1000   0.73799004     5.7648225    
    368000   37.000235           1000   0.75227322     5.7805305    
    369000   37.236757           1000   0.75958182     5.7962384    
    370000   37.484734           1000   0.74500125     5.8119464    
    371000   37.721908           1000   0.73453525     5.8276544    
    372000   37.959285           1000   0.72969179     5.8433623    
    373000   38.200699           1000   0.723653       5.8590703    
    374000   38.436987           1000   0.71754146     5.8747783    
    375000   38.681753           1000   0.72071183     5.8904862    
    376000   38.917404           1000   0.72336169     5.9061942    
    377000   39.154338           1000   0.72699299     5.9219022    
    378000   39.392519           1000   0.73288857     5.9376101    
    379000   39.628837           1000   0.72473018     5.9533181    
    380000   39.86513            1000   0.71786392     5.969026     
    381000   40.102545           1000   0.728836       5.984734     
    382000   40.338101           1000   0.72586993     6.000442     
    383000   40.570293           1000   0.71903735     6.0161499    
    384000   40.79792            1000   0.71712766     6.0318579    
    385000   41.024339           1000   0.70716456     6.0475659    
    386000   41.256997           1000   0.69764085     6.0632738    
    387000   41.491822           1000   0.69688405     6.0789818    
    388000   41.771667           1000   0.69544251     6.0946897    
    389000   42.009818           1000   0.69853882     6.1103977    
    390000   42.253508           1000   0.70087158     6.1261057    
    391000   42.490698           1000   0.70268806     6.1418136    
    392000   42.725102           1000   0.6990446      6.1575216    
    393000   42.963696           1000   0.71237968     6.1732296    
    394000   43.202073           1000   0.72980108     6.1889375    
    395000   43.455093           1000   0.7504873      6.2046455    
    396000   43.677092           1000   0.7578286      6.2203535    
    397000   43.897929           1000   0.75838397     6.2360614    
    398000   44.104988           1000   0.75828154     6.2517694    
    399000   44.313596           1000   0.76438052     6.2674773    
    400000   44.524673           1000   0.76176837     6.2831853    
Loop time of 44.5248 on 8 procs for 200000 steps with 1000 atoms

Performance: 18338.255 tau/day, 4491.883 timesteps/s, 4.492 Matom-step/s
95.5% CPU use with 8 MPI tasks x no OpenMP threads

MPI task timing breakdown:
Section |  min time  |  avg time  |  max time  |%varavg| %total
---------------------------------------------------------------
Pair    | 1.3496     | 2.3314     | 3.3343     |  56.2 |  5.24
Neigh   | 0.017479   | 0.022223   | 0.026935   |   2.7 |  0.05
Comm    | 15.343     | 16.462     | 17.524     |  24.7 | 36.97
Output  | 0.012341   | 0.01615    | 0.02357    |   2.6 |  0.04
Modify  | 14.004     | 17.223     | 20.187     |  48.3 | 38.68
Other   |            | 8.47       |            |       | 19.02

Nlocal:            125 ave         136 max         111 min
Histogram: 1 0 1 0 0 2 1 1 1 1
Nghost:        244.625 ave         299 max         192 min
Histogram: 2 2 0 0 0 0 0 0 2 2
Neighs:        640.375 ave         828 max         455 min
Histogram: 1 2 1 0 0 1 0 0 0 3

Total # of neighbors = 5123
Ave neighs/atom = 5.123
Neighbor list builds = 164
Dangerous builds = 0
Total wall time: 0:01:13
