LAMMPS (8 Feb 2023)
variable	name string mixer

thermo_modify	flush yes
variable	seed equal 14314

###############################################
# Particle parameters
################################################

variable	rlo equal 0.3
variable	rhi equal 0.6
variable	dlo equal 2.0*${rlo}
variable	dlo equal 2.0*0.3
variable	dhi equal 2.0*${rhi}
variable	dhi equal 2.0*0.6
variable 	skin equal ${rhi}
variable 	skin equal 0.6

variable	coeffRes equal 0.1
variable	coeffFric equal 0.5

variable	kn equal 10^5
variable	kt equal 0.2*${kn}
variable	kt equal 0.2*100000

variable	gravity equal 1.0
variable	density equal 1.0

variable	min_mass equal ${density}*4.0/3.0*PI*${rlo}*${rlo}*${rlo}
variable	min_mass equal 1*4.0/3.0*PI*${rlo}*${rlo}*${rlo}
variable	min_mass equal 1*4.0/3.0*PI*0.3*${rlo}*${rlo}
variable	min_mass equal 1*4.0/3.0*PI*0.3*0.3*${rlo}
variable	min_mass equal 1*4.0/3.0*PI*0.3*0.3*0.3
variable	a equal (-2.0*log(${coeffRes})/PI)^2
variable	a equal (-2.0*log(0.1)/PI)^2
variable        gamma_n equal sqrt($a*2*${kn}/${min_mass}/(1+0.25*$a))
variable        gamma_n equal sqrt(0.405284734569351*2*${kn}/${min_mass}/(1+0.25*$a))
variable        gamma_n equal sqrt(0.405284734569351*2*100000/${min_mass}/(1+0.25*$a))
variable        gamma_n equal sqrt(0.405284734569351*2*100000/0.113097335529233/(1+0.25*$a))
variable        gamma_n equal sqrt(0.405284734569351*2*100000/0.113097335529233/(1+0.25*0.405284734569351))
variable        gamma_t equal ${gamma_n}*0.5
variable        gamma_t equal 806.699778405191*0.5

variable	tcol equal PI/sqrt(2*${kn}/${min_mass}-${gamma_n}/4.0)
variable	tcol equal PI/sqrt(2*100000/${min_mass}-${gamma_n}/4.0)
variable	tcol equal PI/sqrt(2*100000/0.113097335529233-${gamma_n}/4.0)
variable	tcol equal PI/sqrt(2*100000/0.113097335529233-806.699778405191/4.0)

variable	dt equal ${tcol}*0.02
variable	dt equal 0.00236257621510454*0.02
timestep	${dt}
timestep	4.72515243020908e-05

###############################################

variable	dumpfreq equal 1000
variable	logfreq equal 1000

newton 		on
atom_style	sphere

boundary	p p f

region		boxreg block 0 20 0 20 0 20
create_box	1 boxreg
Created orthogonal box = (0 0 0) to (20 20 20)
  2 by 2 by 2 MPI processor grid

pair_style	gran/hertz/history 		${kn} ${kt} ${gamma_n} ${gamma_t} ${coeffFric} 1
pair_style	gran/hertz/history 		100000 ${kt} ${gamma_n} ${gamma_t} ${coeffFric} 1
pair_style	gran/hertz/history 		100000 20000 ${gamma_n} ${gamma_t} ${coeffFric} 1
pair_style	gran/hertz/history 		100000 20000 806.699778405191 ${gamma_t} ${coeffFric} 1
pair_style	gran/hertz/history 		100000 20000 806.699778405191 403.349889202595 ${coeffFric} 1
pair_style	gran/hertz/history 		100000 20000 806.699778405191 403.349889202595 0.5 1
pair_coeff	* *

neighbor        ${skin} multi
neighbor        0.6 multi
thermo 		${logfreq}
thermo 		1000

comm_style	brick
comm_modify 	mode multi group all vel yes
balance		1.1 shift xyz 20 1.1
Balancing ...
Generated 0 of 0 mixed pair_coeff terms from geometric mixing rule
Neighbor list info ...
  update: every = 1 steps, delay = 0 steps, check = yes
  max neighbors/atom: 2000, page size: 100000
  master list distance cutoff = 0
  ghost atom cutoff = 0
  binsize = 20, bins = 1 1 1
  1 neighbor lists, perpetual/occasional/extra = 1 0 0
  (1) pair gran/hertz/history, perpetual
      attributes: half, newton on, size, history
      pair build: half/size/multi/newton
      stencil: half/multi/3d
      bin: multi
WARNING: Communication cutoff is 0.0. No ghost atoms will be generated. Atoms may get lost. (src/comm_brick.cpp:210)
fix		bal all balance 10000 1.1 shift xyz 20 1.01

####################### Options specific to pouring #########################

region	     	insreg cylinder z 10 10 8 10 18 side in units box
region	    	cylreg cylinder z 10 10 10 0 20 side in units box

variable	theta equal (step/400000)*2*PI

region          b1 block 2 18 9 11 0 4 side out                 rotate v_theta 10 10 0 0 0 1 units box
region          b2 block 9 11 2 18 0 3.99999 side out                 rotate v_theta 10 10 0 0 0 1 units box

region		mixer intersect 3 cylreg b1 b2 side in

fix		grav all gravity ${gravity} vector 0 0 -1
fix		grav all gravity 1 vector 0 0 -1
fix		1 all nve/sphere

fix		mixwall all wall/gran/region hertz/history                 ${kn} ${kt} ${gamma_n} ${gamma_t} ${coeffFric} 1 region mixer
fix		mixwall all wall/gran/region hertz/history                 100000 ${kt} ${gamma_n} ${gamma_t} ${coeffFric} 1 region mixer
fix		mixwall all wall/gran/region hertz/history                 100000 20000 ${gamma_n} ${gamma_t} ${coeffFric} 1 region mixer
fix		mixwall all wall/gran/region hertz/history                 100000 20000 806.699778405191 ${gamma_t} ${coeffFric} 1 region mixer
fix		mixwall all wall/gran/region hertz/history                 100000 20000 806.699778405191 403.349889202595 ${coeffFric} 1 region mixer
fix		mixwall all wall/gran/region hertz/history                 100000 20000 806.699778405191 403.349889202595 0.5 1 region mixer

fix		ins all pour 1000 1 42424 region insreg 		diam range ${dlo} ${dhi} dens ${density} ${density}
fix		ins all pour 1000 1 42424 region insreg 		diam range 0.6 ${dhi} dens ${density} ${density}
fix		ins all pour 1000 1 42424 region insreg 		diam range 0.6 1.2 dens ${density} ${density}
fix		ins all pour 1000 1 42424 region insreg 		diam range 0.6 1.2 dens 1 ${density}
fix		ins all pour 1000 1 42424 region insreg 		diam range 0.6 1.2 dens 1 1
Particle insertion: 444 every 84653 steps, 1000 by step 169307

#dump		1 all custom ${dumpfreq} ${name}_pour.dump #		id type mass diameter x y z

#dump		2 all image 4000 image.*.jpg type type #		axes yes 0.8 0.02 view 60 -30 zoom 1.5 #                box no 0.0 axes no 0.0 0.0
#dump_modify	2 pad 6

thermo_style	custom step cpu atoms ke v_theta
WARNING: New thermo_style command, previous thermo_modify settings will be lost (src/output.cpp:895)
thermo_modify	flush yes lost warn

run		200000

CITE-CITE-CITE-CITE-CITE-CITE-CITE-CITE-CITE-CITE-CITE-CITE-CITE

Your simulation uses code contributions which should be cited:

- neighbor multi command: doi:10.1016/j.cpc.2008.03.005, doi:10.1007/s40571-020-00361-2

@Article{Intveld08,
 author =  {in 't Veld, P. J. and S. J.~Plimpton and G. S. Grest},
 title =   {Accurate and Efficient Methods for Modeling Colloidal
            Mixtures in an Explicit Solvent using Molecular Dynamics},
 journal = {Comput.\ Phys.\ Commut.},
 year =    2008,
 volume =  179,
 pages =   {320--329}
}

@article{Shire2020,
 author = {Shire, Tom and Hanley, Kevin J. and Stratford, Kevin},
 title = {{DEM} Simulations of Polydisperse Media: Efficient Contact
          Detection Applied to Investigate the Quasi-Static Limit},
 journal = {Computational Particle Mechanics},
 year = {2020}
}

CITE-CITE-CITE-CITE-CITE-CITE-CITE-CITE-CITE-CITE-CITE-CITE-CITE

Generated 0 of 0 mixed pair_coeff terms from geometric mixing rule
Per MPI rank memory allocation (min/avg/max) = 5.804 | 5.804 | 5.804 Mbytes
   Step          CPU          Atoms        KinEng        v_theta    
         0   0                      0  -0              0            
      1000   0.1394554            444  -0              0.015707963  
      2000   0.24724929           444  -0              0.031415927  
      3000   0.35650448           444  -0              0.04712389   
      4000   0.46314954           444  -0              0.062831853  
      5000   0.62425009           444  -0              0.078539816  
      6000   0.73128882           444  -0              0.09424778   
      7000   0.83223243           444  -0              0.10995574   
      8000   0.97713615           444  -0              0.12566371   
      9000   1.0826027            444  -0              0.14137167   
     10000   1.1871657            444  -0              0.15707963   
     11000   1.2740779            444  -0              0.1727876    
     12000   1.3529428            444  -0              0.18849556   
     13000   1.4305446            444  -0              0.20420352   
     14000   1.5281543            444  -0              0.21991149   
     15000   1.6091471            444  -0              0.23561945   
     16000   1.6915256            444  -0              0.25132741   
     17000   1.7817189            444  -0              0.26703538   
     18000   1.8988043            444  -0              0.28274334   
     19000   1.9864401            444  -0              0.2984513    
     20000   2.0775907            444  -0              0.31415927   
     21000   2.1829298            444  -0              0.32986723   
     22000   2.3032312            444  -0              0.34557519   
     23000   2.3830042            444  -0              0.36128316   
     24000   2.4650414            444  -0              0.37699112   
     25000   2.5470094            444  -0              0.39269908   
     26000   2.6284786            444  -0              0.40840704   
     27000   2.7289474            444  -0              0.42411501   
     28000   2.8339359            444  -0              0.43982297   
     29000   2.9264582            444  -0              0.45553093   
     30000   3.014644             444  -0              0.4712389    
     31000   3.1199051            444  -0              0.48694686   
     32000   3.2333112            444  -0              0.50265482   
     33000   3.3138169            444  -0              0.51836279   
     34000   3.3948768            444  -0              0.53407075   
     35000   3.475572             444  -0              0.54977871   
     36000   3.5723318            444  -0              0.56548668   
     37000   3.6545256            444  -0              0.58119464   
     38000   3.7413171            444  -0              0.5969026    
     39000   3.8633311            444  -0              0.61261057   
     40000   3.9532749            444  -0              0.62831853   
     41000   4.0318665            444  -0              0.64402649   
     42000   4.1103057            444  -0              0.65973446   
     43000   4.1912353            444  -0              0.67544242   
     44000   4.2719328            444  -0              0.69115038   
     45000   4.3553654            444  -0              0.70685835   
     46000   4.4401211            444  -0              0.72256631   
     47000   4.52354              444  -0              0.73827427   
     48000   4.6251471            444  -0              0.75398224   
     49000   4.7127879            444  -0              0.7696902    
     50000   4.8040292            444  -0              0.78539816   
     51000   4.8881035            444  -0              0.80110613   
     52000   4.9791916            444  -0              0.81681409   
     53000   5.0568964            444  -0              0.83252205   
     54000   5.1422528            444  -0              0.84823002   
     55000   5.2242338            444  -0              0.86393798   
     56000   5.3084933            444  -0              0.87964594   
     57000   5.3929981            444  -0              0.89535391   
     58000   5.4795413            444  -0              0.91106187   
     59000   5.5689772            444  -0              0.92676983   
     60000   5.677433             444  -0              0.9424778    
     61000   5.8162435            444  -0              0.95818576   
     62000   5.9037689            444  -0              0.97389372   
     63000   5.9922104            444  -0              0.98960169   
     64000   6.0834306            444  -0              1.0053096    
     65000   6.1920053            444  -0              1.0210176    
     66000   6.3116132            444  -0              1.0367256    
     67000   6.41232              444  -0              1.0524335    
     68000   6.5176338            444  -0              1.0681415    
     69000   6.623425             444  -0              1.0838495    
     70000   6.7230949            444  -0              1.0995574    
     71000   6.8136595            444  -0              1.1152654    
     72000   6.9032815            444  -0              1.1309734    
     73000   7.0272813            444  -0              1.1466813    
     74000   7.1633678            444  -0              1.1623893    
     75000   7.2673546            444  -0              1.1780972    
     76000   7.3779639            444  -0              1.1938052    
     77000   7.4726874            444  -0              1.2095132    
     78000   7.5680926            444  -0              1.2252211    
     79000   7.6628987            444  -0              1.2409291    
     80000   7.7619696            444  -0              1.2566371    
     81000   7.8705912            444  -0              1.272345     
     82000   7.9681288            444  -0              1.288053     
     83000   8.0955023            444  -0              1.303761     
     84000   8.1955228            444  -0              1.3194689    
     85000   8.3864411            888  -0              1.3351769    
     86000   8.5645089            888  -0              1.3508848    
     87000   8.7393706            888  -0              1.3665928    
     88000   8.9130904            888  -0              1.3823008    
     89000   9.0801916            888  -0              1.3980087    
     90000   9.2536817            888  -0              1.4137167    
     91000   9.3857892            888  -0              1.4294247    
     92000   9.5343835            888  -0              1.4451326    
     93000   9.6816725            888  -0              1.4608406    
     94000   9.8206686            888  -0              1.4765485    
     95000   9.9555675            888  -0              1.4922565    
     96000   10.08366             888  -0              1.5079645    
     97000   10.210573            888  -0              1.5236724    
     98000   10.344004            888  -0              1.5393804    
     99000   10.47367             888  -0              1.5550884    
    100000   10.603622            888  -0              1.5707963    
    101000   10.727444            888  -0              1.5865043    
    102000   10.858355            888  -0              1.6022123    
    103000   10.988368            888  -0              1.6179202    
    104000   11.122861            888  -0              1.6336282    
    105000   11.255403            888  -0              1.6493361    
    106000   11.38614             888  -0              1.6650441    
    107000   11.527226            888  -0              1.6807521    
    108000   11.718022            888  -0              1.69646      
    109000   11.867579            888  -0              1.712168     
    110000   12.01363             888  -0              1.727876     
    111000   12.160392            888  -0              1.7435839    
    112000   12.30553             888  -0              1.7592919    
    113000   12.453189            888  -0              1.7749998    
    114000   12.603076            888  -0              1.7907078    
    115000   12.763451            888  -0              1.8064158    
    116000   12.928177            888  -0              1.8221237    
    117000   13.080488            888  -0              1.8378317    
    118000   13.236555            888  -0              1.8535397    
    119000   13.390983            888  -0              1.8692476    
    120000   13.551746            888  -0              1.8849556    
    121000   13.695443            888  -0              1.9006636    
    122000   13.842481            888  -0              1.9163715    
    123000   13.986539            888  -0              1.9320795    
    124000   14.132278            888  -0              1.9477874    
    125000   14.281969            888  -0              1.9634954    
    126000   14.436537            888  -0              1.9792034    
    127000   14.59001             888  -0              1.9949113    
    128000   14.746779            888  -0              2.0106193    
    129000   14.904381            888  -0              2.0263273    
    130000   15.060529            888  -0              2.0420352    
    131000   15.208136            888  -0              2.0577432    
    132000   15.357956            888  -0              2.0734512    
    133000   15.509756            888  -0              2.0891591    
    134000   15.668554            888  -0              2.1048671    
    135000   15.823123            888  -0              2.120575     
    136000   15.979712            888  -0              2.136283     
    137000   16.140015            888  -0              2.151991     
    138000   16.296756            888  -0              2.1676989    
    139000   16.456982            888  -0              2.1834069    
    140000   16.638344            888  -0              2.1991149    
    141000   16.79698             888  -0              2.2148228    
    142000   16.956664            888  -0              2.2305308    
    143000   17.122354            888  -0              2.2462387    
    144000   17.296283            888  -0              2.2619467    
    145000   17.500758            888  -0              2.2776547    
    146000   17.676825            888  -0              2.2933626    
    147000   17.853164            888  -0              2.3090706    
    148000   18.025899            888  -0              2.3247786    
    149000   18.205651            888  -0              2.3404865    
    150000   18.388965            888  -0              2.3561945    
    151000   18.573592            888  -0              2.3719025    
    152000   18.75539             888  -0              2.3876104    
    153000   18.945266            888  -0              2.4033184    
    154000   19.133834            888  -0              2.4190263    
    155000   19.32317             888  -0              2.4347343    
    156000   19.515022            888  -0              2.4504423    
    157000   19.70648             888  -0              2.4661502    
    158000   19.920485            888  -0              2.4818582    
    159000   20.119831            888  -0              2.4975662    
    160000   20.320129            888  -0              2.5132741    
    161000   20.5167              888  -0              2.5289821    
    162000   20.719207            888  -0              2.54469      
    163000   20.939806            888  -0              2.560398     
    164000   21.154974            888  -0              2.576106     
    165000   21.355409            888  -0              2.5918139    
    166000   21.614662            888  -0              2.6075219    
    167000   21.854444            888  -0              2.6232299    
    168000   22.044681            888  -0              2.6389378    
    169000   22.239286            888  -0              2.6546458    
    170000   22.429893           1000  -0              2.6703538    
    171000   22.61767            1000  -0              2.6860617    
    172000   22.812722           1000  -0              2.7017697    
    173000   23.010496           1000  -0              2.7174776    
    174000   23.209183           1000  -0              2.7331856    
    175000   23.408263           1000  -0              2.7488936    
    176000   23.616477           1000  -0              2.7646015    
    177000   23.846076           1000  -0              2.7803095    
    178000   24.089216           1000  -0              2.7960175    
    179000   24.325428           1000  -0              2.8117254    
    180000   24.545939           1000  -0              2.8274334    
    181000   24.784008           1000  -0              2.8431414    
    182000   25.01192            1000  -0              2.8588493    
    183000   25.229931           1000  -0              2.8745573    
    184000   25.449937           1000  -0              2.8902652    
    185000   25.671905           1000  -0              2.9059732    
    186000   25.906529           1000  -0              2.9216812    
    187000   26.150703           1000  -0              2.9373891    
    188000   26.380614           1000  -0              2.9530971    
    189000   26.592818           1000  -0              2.9688051    
    190000   26.814328           1000  -0              2.984513     
    191000   27.025351           1000  -0              3.000221     
    192000   27.239885           1000  -0              3.0159289    
    193000   27.449144           1000  -0              3.0316369    
    194000   27.656616           1000  -0              3.0473449    
    195000   27.858494           1000  -0              3.0630528    
    196000   28.060736           1000  -0              3.0787608    
    197000   28.263941           1000  -0              3.0944688    
    198000   28.471423           1000  -0              3.1101767    
    199000   28.687281           1000  -0              3.1258847    
    200000   28.891599           1000  -0              3.1415927    
Loop time of 28.8918 on 8 procs for 200000 steps with 1000 atoms

Performance: 28260.811 tau/day, 6922.374 timesteps/s, 6.922 Matom-step/s
98.0% CPU use with 8 MPI tasks x no OpenMP threads

MPI task timing breakdown:
Section |  min time  |  avg time  |  max time  |%varavg| %total
---------------------------------------------------------------
Pair    | 0.38789    | 0.80314    | 1.276      |  43.1 |  2.78
Neigh   | 0.011162   | 0.014876   | 0.018582   |   2.6 |  0.05
Comm    | 8.5505     | 9.3135     | 10.014     |  17.6 | 32.24
Output  | 0.010867   | 0.016334   | 0.039664   |   7.0 |  0.06
Modify  | 10.388     | 12.785     | 15.016     |  51.2 | 44.25
Other   |            | 5.958      |            |       | 20.62

Nlocal:            125 ave         131 max         121 min
Histogram: 2 2 0 0 0 1 0 1 1 1
Nghost:          187.5 ave         230 max         146 min
Histogram: 1 1 2 0 0 0 1 1 0 2
Neighs:        477.875 ave         725 max         242 min
Histogram: 3 1 0 0 0 0 0 0 2 2

Total # of neighbors = 3823
Ave neighs/atom = 3.823
Neighbor list builds = 201
Dangerous builds = 0
unfix 		ins
run		200000
Generated 0 of 0 mixed pair_coeff terms from geometric mixing rule
Per MPI rank memory allocation (min/avg/max) = 11.84 | 11.84 | 11.84 Mbytes
   Step          CPU          Atoms        KinEng        v_theta    
    200000   0                   1000   1.0614404      3.1415927    
    201000   0.19200671          1000   1.0406443      3.1573006    
    202000   0.38310965          1000   1.0168487      3.1730086    
    203000   0.57580374          1000   0.99848707     3.1887165    
    204000   0.77500862          1000   0.98859779     3.2044245    
    205000   0.99137617          1000   0.98202686     3.2201325    
    206000   1.1849834           1000   0.97834239     3.2358404    
    207000   1.380919            1000   0.98287322     3.2515484    
    208000   1.5685668           1000   0.9843302      3.2672564    
    209000   1.7668068           1000   0.9791209      3.2829643    
    210000   1.9690307           1000   0.96900722     3.2986723    
    211000   2.1600067           1000   0.96408835     3.3143802    
    212000   2.354219            1000   0.94705133     3.3300882    
    213000   2.5458156           1000   0.94219832     3.3457962    
    214000   2.7345363           1000   0.93429533     3.3615041    
    215000   2.9278174           1000   0.92327388     3.3772121    
    216000   3.1188264           1000   0.92610391     3.3929201    
    217000   3.3128937           1000   0.9231575      3.408628     
    218000   3.5094886           1000   0.93239077     3.424336     
    219000   3.7083874           1000   0.9254611      3.440044     
    220000   3.9128501           1000   0.90736836     3.4557519    
    221000   4.1181547           1000   0.90496245     3.4714599    
    222000   4.3236383           1000   0.89915381     3.4871678    
    223000   4.5267303           1000   0.89459064     3.5028758    
    224000   4.7430809           1000   0.89416362     3.5185838    
    225000   4.953955            1000   0.90342717     3.5342917    
    226000   5.1619929           1000   0.89703901     3.5499997    
    227000   5.3667833           1000   0.8937164      3.5657077    
    228000   5.5713971           1000   0.89613291     3.5814156    
    229000   5.797267            1000   0.89795253     3.5971236    
    230000   6.0101357           1000   0.90146197     3.6128316    
    231000   6.2378919           1000   0.89769642     3.6285395    
    232000   6.4594494           1000   0.89454727     3.6442475    
    233000   6.6863724           1000   0.89529328     3.6599554    
    234000   6.9027938           1000   0.89561307     3.6756634    
    235000   7.1224043           1000   0.89227148     3.6913714    
    236000   7.3380479           1000   0.8969473      3.7070793    
    237000   7.560191            1000   0.90962357     3.7227873    
    238000   7.7812939           1000   0.91147138     3.7384953    
    239000   8.007479            1000   0.92018479     3.7542032    
    240000   8.2526138           1000   0.92306882     3.7699112    
    241000   8.4852097           1000   0.92413976     3.7856191    
    242000   8.7203874           1000   0.92416384     3.8013271    
    243000   8.9498571           1000   0.92586608     3.8170351    
    244000   9.1933111           1000   0.92954677     3.832743     
    245000   9.4379187           1000   0.94045327     3.848451     
    246000   9.6774166           1000   0.93734343     3.864159     
    247000   9.9146986           1000   0.92763471     3.8798669    
    248000   10.152654           1000   0.9286225      3.8955749    
    249000   10.376434           1000   0.92080031     3.9112829    
    250000   10.625982           1000   0.91023831     3.9269908    
    251000   10.858813           1000   0.90428221     3.9426988    
    252000   11.072335           1000   0.89268687     3.9584067    
    253000   11.283705           1000   0.87216198     3.9741147    
    254000   11.52042            1000   0.8580251      3.9898227    
    255000   11.747992           1000   0.85010559     4.0055306    
    256000   11.975917           1000   0.84691333     4.0212386    
    257000   12.213872           1000   0.84449018     4.0369466    
    258000   12.434068           1000   0.839961       4.0526545    
    259000   12.654376           1000   0.82815449     4.0683625    
    260000   12.884138           1000   0.82370544     4.0840704    
    261000   13.104034           1000   0.81866672     4.0997784    
    262000   13.325845           1000   0.81040269     4.1154864    
    263000   13.548254           1000   0.79266433     4.1311943    
    264000   13.770849           1000   0.77968653     4.1469023    
    265000   14.001688           1000   0.76628301     4.1626103    
    266000   14.228488           1000   0.75317411     4.1783182    
    267000   14.454241           1000   0.74306318     4.1940262    
    268000   14.682976           1000   0.7407125      4.2097342    
    269000   14.912838           1000   0.73894788     4.2254421    
    270000   15.164096           1000   0.73419826     4.2411501    
    271000   15.420006           1000   0.74144449     4.256858     
    272000   15.670638           1000   0.7393511      4.272566     
    273000   15.915885           1000   0.73889596     4.288274     
    274000   16.153852           1000   0.73081614     4.3039819    
    275000   16.387377           1000   0.74215765     4.3196899    
    276000   16.633966           1000   0.7402951      4.3353979    
    277000   16.877053           1000   0.73727654     4.3511058    
    278000   17.114925           1000   0.74810736     4.3668138    
    279000   17.351681           1000   0.75574796     4.3825218    
    280000   17.588444           1000   0.75778961     4.3982297    
    281000   17.871399           1000   0.74952357     4.4139377    
    282000   18.123711           1000   0.73809412     4.4296456    
    283000   18.339415           1000   0.73289344     4.4453536    
    284000   18.562041           1000   0.72806306     4.4610616    
    285000   18.874748           1000   0.72262542     4.4767695    
    286000   19.197558           1000   0.72054976     4.4924775    
    287000   19.497155           1000   0.71788923     4.5081855    
    288000   19.882347           1000   0.71232396     4.5238934    
    289000   20.119826           1000   0.70099705     4.5396014    
    290000   20.493421           1000   0.69662326     4.5553093    
    291000   20.811673           1000   0.69385334     4.5710173    
    292000   21.068338           1000   0.68655126     4.5867253    
    293000   21.299603           1000   0.67961518     4.6024332    
    294000   21.575901           1000   0.6818871      4.6181412    
    295000   21.916473           1000   0.69112959     4.6338492    
    296000   22.355108           1000   0.68628209     4.6495571    
    297000   22.64535            1000   0.67925216     4.6652651    
    298000   22.86011            1000   0.67514676     4.6809731    
    299000   23.204775           1000   0.67033637     4.696681     
    300000   23.684254           1000   0.66623176     4.712389     
    301000   23.957514           1000   0.65701878     4.7280969    
    302000   24.226432           1000   0.65527713     4.7438049    
    303000   24.620175           1000   0.6557463      4.7595129    
    304000   24.91343            1000   0.65643807     4.7752208    
    305000   25.232969           1000   0.66527932     4.7909288    
    306000   25.511653           1000   0.67583682     4.8066368    
    307000   25.796826           1000   0.67683004     4.8223447    
    308000   26.238996           1000   0.68223667     4.8380527    
    309000   26.55421            1000   0.68830454     4.8537606    
    310000   26.801073           1000   0.69480479     4.8694686    
    311000   27.044969           1000   0.69505277     4.8851766    
    312000   27.345632           1000   0.7004707      4.9008845    
    313000   27.612665           1000   0.70856081     4.9165925    
    314000   27.884258           1000   0.70673051     4.9323005    
    315000   28.163861           1000   0.70414025     4.9480084    
    316000   28.449375           1000   0.69862715     4.9637164    
    317000   28.786884           1000   0.69954888     4.9794244    
    318000   29.247734           1000   0.69833363     4.9951323    
    319000   29.526109           1000   0.69604597     5.0108403    
    320000   29.88521            1000   0.6907521      5.0265482    
    321000   30.237514           1000   0.69743155     5.0422562    
    322000   30.5836             1000   0.69492514     5.0579642    
    323000   30.88966            1000   0.6851576      5.0736721    
    324000   31.264106           1000   0.67641205     5.0893801    
    325000   31.735211           1000   0.67694169     5.1050881    
    326000   32.148109           1000   0.67773173     5.120796     
    327000   32.586786           1000   0.68697411     5.136504     
    328000   32.814454           1000   0.68807978     5.152212     
    329000   33.042755           1000   0.69210256     5.1679199    
    330000   33.299731           1000   0.69148494     5.1836279    
    331000   33.601409           1000   0.68662784     5.1993358    
    332000   33.828431           1000   0.68900221     5.2150438    
    333000   34.16425            1000   0.684864       5.2307518    
    334000   34.456016           1000   0.68445503     5.2464597    
    335000   34.977634           1000   0.68533948     5.2621677    
    336000   35.305652           1000   0.67991289     5.2778757    
    337000   35.731256           1000   0.67198623     5.2935836    
    338000   36.188313           1000   0.66903039     5.3092916    
    339000   36.465056           1000   0.66635149     5.3249995    
    340000   36.739825           1000   0.67192649     5.3407075    
    341000   37.03374            1000   0.68158904     5.3564155    
    342000   37.330311           1000   0.69528687     5.3721234    
    343000   37.768608           1000   0.70833971     5.3878314    
    344000   38.22852            1000   0.71375404     5.4035394    
    345000   38.493264           1000   0.7181134      5.4192473    
    346000   38.789539           1000   0.73595417     5.4349553    
    347000   39.190834           1000   0.75325779     5.4506633    
    348000   39.704955           1000   0.76813766     5.4663712    
    349000   40.270573           1000   0.76180446     5.4820792    
    350000   40.83983            1000   0.75247707     5.4977871    
    351000   41.287271           1000   0.74093509     5.5134951    
    352000   41.657634           1000   0.73445021     5.5292031    
    353000   42.446766           1000   0.73202653     5.544911     
    354000   43.272138           1000   0.72489462     5.560619     
    355000   43.765762           1000   0.71925498     5.576327     
    356000   44.156417           1000   0.71508144     5.5920349    
    357000   44.825709           1000   0.71282147     5.6077429    
    358000   45.348121           1000   0.70366807     5.6234508    
    359000   45.798446           1000   0.69562373     5.6391588    
    360000   46.568007           1000   0.68331941     5.6548668    
    361000   46.945332           1000   0.67491491     5.6705747    
    362000   47.264629           1000   0.67051693     5.6862827    
    363000   47.546667           1000   0.66886221     5.7019907    
    364000   48.039864           1000   0.6623602      5.7176986    
    365000   48.704538           1000   0.65719506     5.7334066    
    366000   49.172493           1000   0.65712935     5.7491146    
    367000   49.759581           1000   0.65242421     5.7648225    
    368000   50.167784           1000   0.66629008     5.7805305    
    369000   50.701481           1000   0.67773485     5.7962384    
    370000   51.369169           1000   0.70044581     5.8119464    
    371000   51.880616           1000   0.70331696     5.8276544    
    372000   52.273623           1000   0.71532628     5.8433623    
    373000   52.839308           1000   0.72482561     5.8590703    
    374000   53.174139           1000   0.72296526     5.8747783    
    375000   53.566102           1000   0.73582602     5.8904862    
    376000   53.998717           1000   0.73481345     5.9061942    
    377000   54.482196           1000   0.73693415     5.9219022    
    378000   55.038323           1000   0.72554561     5.9376101    
    379000   55.502391           1000   0.7145472      5.9533181    
    380000   55.802167           1000   0.71292606     5.969026     
    381000   56.113              1000   0.69920965     5.984734     
    382000   56.498723           1000   0.68977914     6.000442     
    383000   57.276143           1000   0.68430223     6.0161499    
    384000   57.760005           1000   0.67432163     6.0318579    
    385000   58.620158           1000   0.66956627     6.0475659    
    386000   59.780965           1000   0.66348259     6.0632738    
    387000   62.072404           1000   0.65695586     6.0789818    
    388000   64.232888           1000   0.65902908     6.0946897    
    389000   65.237945           1000   0.65173378     6.1103977    
    390000   66.074718           1000   0.64563357     6.1261057    
    391000   67.768544           1000   0.64972298     6.1418136    
    392000   69.606658           1000   0.64041274     6.1575216    
    393000   70.87049            1000   0.62949526     6.1732296    
    394000   72.091678           1000   0.63438684     6.1889375    
    395000   73.277361           1000   0.63891469     6.2046455    
    396000   74.328305           1000   0.67526154     6.2203535    
    397000   75.792452           1000   0.70001142     6.2360614    
    398000   78.005806           1000   0.70333147     6.2517694    
    399000   79.431364           1000   0.69679612     6.2674773    
    400000   81.772668           1000   0.68572317     6.2831853    
Loop time of 81.7728 on 8 procs for 200000 steps with 1000 atoms

Performance: 9985.063 tau/day, 2445.802 timesteps/s, 2.446 Matom-step/s
88.2% CPU use with 8 MPI tasks x no OpenMP threads

MPI task timing breakdown:
Section |  min time  |  avg time  |  max time  |%varavg| %total
---------------------------------------------------------------
Pair    | 1.4714     | 2.6474     | 4.0278     |  69.3 |  3.24
Neigh   | 0.01764    | 0.022838   | 0.028274   |   2.9 |  0.03
Comm    | 36.108     | 37.145     | 38.045     |  13.6 | 45.43
Output  | 0.010854   | 0.018171   | 0.045582   |   7.9 |  0.02
Modify  | 18.093     | 21.072     | 24.168     |  55.1 | 25.77
Other   |            | 20.87      |            |       | 25.52

Nlocal:            125 ave         137 max         115 min
Histogram: 1 1 1 1 0 2 0 0 1 1
Nghost:        259.125 ave         306 max         212 min
Histogram: 3 1 0 0 0 0 0 0 1 3
Neighs:         650.75 ave         850 max         498 min
Histogram: 3 1 0 0 0 1 0 1 0 2

Total # of neighbors = 5206
Ave neighs/atom = 5.206
Neighbor list builds = 165
Dangerous builds = 0
Total wall time: 0:01:50
